3
# CELL(abcABC): 1322.94304  1322.94304  1322.94304    90.00000    90.00000    90.00000  Step:           0  Bead:      27 positions{angstrom}  cell{angstrom}
       E  0.00000e+00  0.00000e+00  0.00000e+00
       E  0.00000e+00  0.00000e+00  0.00000e+00
       E  0.00000e+00  0.00000e+00  0.00000e+00
3
# CELL(abcABC): 1322.94304  1322.94304  1322.94304    90.00000    90.00000    90.00000  Step:         100  Bead:      27 positions{angstrom}  cell{angstrom}
       E  9.34813e+00 -2.24963e+01  9.88457e-01
       E  3.09430e+00 -3.25028e+01  8.00672e+00
       E  2.29037e+01 -6.79842e+00 -1.04959e+01
3
# CELL(abcABC): 1322.94304  1322.94304  1322.94304    90.00000    90.00000    90.00000  Step:         200  Bead:      27 positions{angstrom}  cell{angstrom}
       E -7.38282e+00  1.11199e+00  3.74699e+01
       E -2.02211e+01 -3.66788e+01  1.65049e+01
       E  4.00418e+01 -1.59978e+00  9.83399e+00
3
# CELL(abcABC): 1322.94304  1322.94304  1322.94304    90.00000    90.00000    90.00000  Step:         300  Bead:      27 positions{angstrom}  cell{angstrom}
       E  1.08927e+01 -5.50846e+00  4.28355e+00
       E  2.22513e-01 -3.05912e+01  1.42852e+01
       E  5.08262e+01 -8.46725e+00  4.93819e-01
3
# CELL(abcABC): 1322.94304  1322.94304  1322.94304    90.00000    90.00000    90.00000  Step:         400  Bead:      27 positions{angstrom}  cell{angstrom}
       E  3.35670e-01  2.85441e+00 -1.85078e+01
       E -3.21463e+01 -8.71094e+00 -1.25738e+01
       E  6.03920e+01 -2.93679e+00 -1.43189e+01
3
# CELL(abcABC): 1322.94304  1322.94304  1322.94304    90.00000    90.00000    90.00000  Step:         500  Bead:      27 positions{angstrom}  cell{angstrom}
       E  3.65270e+01 -2.39670e+01 -2.78218e+01
       E -6.28520e+00  1.24480e+01  3.37633e+01
       E  5.23393e+01 -1.33572e+01  3.68321e+00
3
# CELL(abcABC): 1322.94304  1322.94304  1322.94304    90.00000    90.00000    90.00000  Step:         600  Bead:      27 positions{angstrom}  cell{angstrom}
       E  2.81207e+01 -3.40058e+00  2.87587e+01
       E -3.10163e+01 -2.43184e+01  6.11040e+01
       E  5.29894e+01  1.14198e+01  1.77947e+01
3
# CELL(abcABC): 1322.94304  1322.94304  1322.94304    90.00000    90.00000    90.00000  Step:         700  Bead:      27 positions{angstrom}  cell{angstrom}
       E  2.46244e+01  3.01824e+00 -4.11837e+00
       E -5.88018e+01  1.66682e-01  4.52518e+01
       E -1.07043e+01  2.62641e+01  3.34684e+01
3
# CELL(abcABC): 1322.94304  1322.94304  1322.94304    90.00000    90.00000    90.00000  Step:         800  Bead:      27 positions{angstrom}  cell{angstrom}
       E  5.17783e+01 -2.60287e+00 -6.08774e+00
       E -1.48963e+00  3.08537e+00  4.93899e+01
       E -3.28571e+01  1.51979e+01  3.30301e+01
3
# CELL(abcABC): 1322.94304  1322.94304  1322.94304    90.00000    90.00000    90.00000  Step:         900  Bead:      27 positions{angstrom}  cell{angstrom}
       E  1.53625e+01 -1.33294e+00 -3.71641e+00
       E -2.83376e+01  2.76485e+01  2.15906e+01
       E  1.26390e+01 -2.67923e+00  6.71001e+01
3
# CELL(abcABC): 1322.94304  1322.94304  1322.94304    90.00000    90.00000    90.00000  Step:        1000  Bead:      27 positions{angstrom}  cell{angstrom}
       E  2.46762e+01  2.66690e+01  9.10181e+00
       E -2.81021e+01  4.37290e+01  1.43287e+01
       E  2.12540e+01 -1.37090e+01  2.19589e+01
3
# CELL(abcABC): 1322.94304  1322.94304  1322.94304    90.00000    90.00000    90.00000  Step:        1100  Bead:      27 positions{angstrom}  cell{angstrom}
       E  2.75498e+01 -5.60121e+00 -3.49477e+00
       E -1.86368e+01  5.62686e+01  2.40728e+01
       E  3.84764e+01 -1.36930e+01 -1.06509e+01
3
# CELL(abcABC): 1322.94304  1322.94304  1322.94304    90.00000    90.00000    90.00000  Step:        1200  Bead:      27 positions{angstrom}  cell{angstrom}
       E -5.58080e+00 -3.37722e+01 -1.23127e+01
       E -1.95824e+01  5.21153e+01 -1.91260e+01
       E  4.07426e+01  7.42180e+01 -2.20690e+01
3
# CELL(abcABC): 1322.94304  1322.94304  1322.94304    90.00000    90.00000    90.00000  Step:        1300  Bead:      27 positions{angstrom}  cell{angstrom}
       E -5.27139e+00 -1.56943e+00 -3.10804e+01
       E -2.29630e+01  4.27712e+01 -5.07499e+01
       E  8.46122e+00  4.87071e+01 -3.62853e+01
3
# CELL(abcABC): 1322.94304  1322.94304  1322.94304    90.00000    90.00000    90.00000  Step:        1400  Bead:      27 positions{angstrom}  cell{angstrom}
       E  2.22394e+00  3.17415e+01 -7.23219e+01
       E -4.55938e+01  1.12492e+01 -3.98782e+01
       E  1.96878e+01  2.31121e+00 -1.32006e+01
3
# CELL(abcABC): 1322.94304  1322.94304  1322.94304    90.00000    90.00000    90.00000  Step:        1500  Bead:      27 positions{angstrom}  cell{angstrom}
       E -1.85378e+01  5.49310e+01 -6.92585e+01
       E -3.52774e+01  5.43344e+01 -2.51545e+00
       E  3.40275e+01  6.79611e+00 -6.44825e+00
3
# CELL(abcABC): 1322.94304  1322.94304  1322.94304    90.00000    90.00000    90.00000  Step:        1600  Bead:      27 positions{angstrom}  cell{angstrom}
       E -8.55924e+00  4.12968e+01 -8.28149e+01
       E -1.59391e+01  5.91961e+01  3.11037e+01
       E -9.01581e+00 -2.21853e+01 -4.61222e+00
3
# CELL(abcABC): 1322.94304  1322.94304  1322.94304    90.00000    90.00000    90.00000  Step:        1700  Bead:      27 positions{angstrom}  cell{angstrom}
       E -5.03794e+01  3.72851e+01 -2.61059e+01
       E -2.97470e+01  6.79530e+01  2.16124e+01
       E -7.49803e+00 -2.85374e+01 -1.63357e+00
3
# CELL(abcABC): 1322.94304  1322.94304  1322.94304    90.00000    90.00000    90.00000  Step:        1800  Bead:      27 positions{angstrom}  cell{angstrom}
       E -1.70432e+01  1.63458e+01  3.00220e+01
       E -7.13100e+01  7.16969e+01 -1.39029e+01
       E -3.61889e+01  3.09962e-01  6.32218e-01
3
# CELL(abcABC): 1322.94304  1322.94304  1322.94304    90.00000    90.00000    90.00000  Step:        1900  Bead:      27 positions{angstrom}  cell{angstrom}
       E -2.12814e+01  3.82610e+01  2.32257e+01
       E -6.30650e+01  8.79031e+01 -1.88393e+01
       E -3.94611e+01 -7.65647e+00  4.05643e+01
3
# CELL(abcABC): 1322.94304  1322.94304  1322.94304    90.00000    90.00000    90.00000  Step:        2000  Bead:      27 positions{angstrom}  cell{angstrom}
       E -1.20698e+01 -2.71409e+01  4.09683e+01
       E -4.40080e+01  4.64586e+01 -2.73219e+00
       E -5.87180e+01  1.81632e+01 -2.58102e+00
3
# CELL(abcABC): 1322.94304  1322.94304  1322.94304    90.00000    90.00000    90.00000  Step:        2100  Bead:      27 positions{angstrom}  cell{angstrom}
       E -1.60394e-01 -4.94636e+01  8.63148e+00
       E -5.20611e+01  3.57698e+01  7.44979e+00
       E -2.65805e+01  3.89604e+01 -2.70539e+01
3
# CELL(abcABC): 1322.94304  1322.94304  1322.94304    90.00000    90.00000    90.00000  Step:        2200  Bead:      27 positions{angstrom}  cell{angstrom}
       E -1.87104e+01 -5.78575e+01 -1.30985e+00
       E -4.53084e+01  6.94039e+01  1.11888e+01
       E -6.43670e+00  5.13368e+00 -8.40430e+00
3
# CELL(abcABC): 1322.94304  1322.94304  1322.94304    90.00000    90.00000    90.00000  Step:        2300  Bead:      27 positions{angstrom}  cell{angstrom}
       E  4.17324e+00 -7.71044e+01 -5.88958e+00
       E -2.68298e+01  6.14281e+01  2.08637e+01
       E -4.30100e+01 -1.83867e+00 -3.61995e+01
3
# CELL(abcABC): 1322.94304  1322.94304  1322.94304    90.00000    90.00000    90.00000  Step:        2400  Bead:      27 positions{angstrom}  cell{angstrom}
       E -4.12318e+01 -5.03795e+01  4.66305e+00
       E -5.43319e+01  5.76600e+01 -3.26451e+00
       E -1.65166e+01 -2.62877e+01 -5.29355e+01
3
# CELL(abcABC): 1322.94304  1322.94304  1322.94304    90.00000    90.00000    90.00000  Step:        2500  Bead:      27 positions{angstrom}  cell{angstrom}
       E -3.44196e+01 -4.09663e+01  2.68115e+01
       E -4.88950e+01 -4.55015e+00  1.45008e+01
       E  2.37738e+01 -3.41802e+01  2.40729e+01
3
# CELL(abcABC): 1322.94304  1322.94304  1322.94304    90.00000    90.00000    90.00000  Step:        2600  Bead:      27 positions{angstrom}  cell{angstrom}
       E -4.52796e+01 -1.24457e+01  5.71692e+01
       E -7.02088e+01 -2.12339e+01  2.74199e+01
       E  2.59006e+01 -5.70094e+01  3.79951e+01
3
# CELL(abcABC): 1322.94304  1322.94304  1322.94304    90.00000    90.00000    90.00000  Step:        2700  Bead:      27 positions{angstrom}  cell{angstrom}
       E -3.23732e+01 -6.90598e+01  1.03160e+02
       E -5.83019e+01 -1.80420e+01  1.78718e+01
       E  7.77702e+00 -4.09942e+01  4.16002e+01
3
# CELL(abcABC): 1322.94304  1322.94304  1322.94304    90.00000    90.00000    90.00000  Step:        2800  Bead:      27 positions{angstrom}  cell{angstrom}
       E -5.45527e+01 -5.41233e+01  8.90091e+01
       E -5.50544e+01 -6.12223e-01  1.69972e+01
       E  1.76290e+01 -3.26038e+01  3.62027e+00
3
# CELL(abcABC): 1322.94304  1322.94304  1322.94304    90.00000    90.00000    90.00000  Step:        2900  Bead:      27 positions{angstrom}  cell{angstrom}
       E -4.76025e+01 -6.72660e+01  5.88192e+01
       E -5.66643e+01 -3.84092e+00  3.91255e+01
       E  2.15381e+01 -6.02801e+01  1.45354e+01
3
# CELL(abcABC): 1322.94304  1322.94304  1322.94304    90.00000    90.00000    90.00000  Step:        3000  Bead:      27 positions{angstrom}  cell{angstrom}
       E -7.92338e+01 -5.11643e+01  2.98273e+01
       E -6.38593e+01 -3.45954e+01  3.29387e+01
       E  3.30964e+01 -2.67594e+01  9.04504e+00
3
# CELL(abcABC): 1322.94304  1322.94304  1322.94304    90.00000    90.00000    90.00000  Step:        3100  Bead:      27 positions{angstrom}  cell{angstrom}
       E -9.17243e+01 -5.72328e+01  1.03452e+01
       E -5.50254e+01 -2.96396e+01  8.92405e+01
       E  4.94337e+01  1.22551e+01 -4.01162e-01
3
# CELL(abcABC): 1322.94304  1322.94304  1322.94304    90.00000    90.00000    90.00000  Step:        3200  Bead:      27 positions{angstrom}  cell{angstrom}
       E -8.72306e+01 -6.13951e+01  4.48984e+01
       E -6.03340e+01  3.10259e+01  6.84504e+01
       E  3.83761e+01  5.98978e+00  2.15452e+01
3
# CELL(abcABC): 1322.94304  1322.94304  1322.94304    90.00000    90.00000    90.00000  Step:        3300  Bead:      27 positions{angstrom}  cell{angstrom}
       E -1.01582e+02  2.21968e+01  5.58374e+01
       E -5.73026e+01  5.97393e+01  7.38545e+01
       E  3.14600e+01  3.01614e+01  8.94098e+00
3
# CELL(abcABC): 1322.94304  1322.94304  1322.94304    90.00000    90.00000    90.00000  Step:        3400  Bead:      27 positions{angstrom}  cell{angstrom}
       E -1.21239e+02  3.60338e+01  1.02431e+02
       E -3.61582e+01  2.68184e+01  3.02799e+01
       E  2.74580e+01  8.27574e+00  2.12816e+01
3
# CELL(abcABC): 1322.94304  1322.94304  1322.94304    90.00000    90.00000    90.00000  Step:        3500  Bead:      27 positions{angstrom}  cell{angstrom}
       E -1.00956e+02 -7.02754e+00  8.54602e+01
       E -4.19847e+01  2.20186e+00  5.70105e+01
       E -3.62917e+00 -1.55743e+00  3.68657e+01
3
# CELL(abcABC): 1322.94304  1322.94304  1322.94304    90.00000    90.00000    90.00000  Step:        3600  Bead:      27 positions{angstrom}  cell{angstrom}
       E -9.94733e+01 -5.41219e+01  1.73358e+01
       E -7.28051e+00  4.30258e+01  7.19149e+01
       E -7.16414e+01 -2.70771e+01  1.12909e+01
3
# CELL(abcABC): 1322.94304  1322.94304  1322.94304    90.00000    90.00000    90.00000  Step:        3700  Bead:      27 positions{angstrom}  cell{angstrom}
       E -1.05612e+02 -4.95043e+01  3.59937e+00
       E -1.13282e+01 -1.12145e+01  2.82601e+01
       E -5.07803e+01 -5.91464e+01 -2.72921e+00
3
# CELL(abcABC): 1322.94304  1322.94304  1322.94304    90.00000    90.00000    90.00000  Step:        3800  Bead:      27 positions{angstrom}  cell{angstrom}
       E -6.35094e+01  5.25533e-01  2.19310e+01
       E -3.23422e+00 -1.85511e+01  2.79506e+01
       E -3.76355e+00 -6.82476e+01  1.26095e+00
3
# CELL(abcABC): 1322.94304  1322.94304  1322.94304    90.00000    90.00000    90.00000  Step:        3900  Bead:      27 positions{angstrom}  cell{angstrom}
       E -5.86161e+01 -1.07077e+01 -3.36505e+01
       E -2.26790e+01 -1.63028e+01  6.51362e+01
       E -8.60344e+00 -5.58370e+01  8.93989e+00
3
# CELL(abcABC): 1322.94304  1322.94304  1322.94304    90.00000    90.00000    90.00000  Step:        4000  Bead:      27 positions{angstrom}  cell{angstrom}
       E -4.50453e+01 -5.95760e+00 -2.86737e+01
       E -6.03879e+01 -8.59403e-01  4.70006e+01
       E -1.81858e+01 -3.21939e+01 -5.30236e+01
3
# CELL(abcABC): 1322.94304  1322.94304  1322.94304    90.00000    90.00000    90.00000  Step:        4100  Bead:      27 positions{angstrom}  cell{angstrom}
       E -7.00233e+01 -2.52788e+01 -7.72527e+01
       E -7.20787e+01  2.59169e+01  2.29725e+01
       E -2.85725e+01 -2.89933e+01  2.22859e+01
3
# CELL(abcABC): 1322.94304  1322.94304  1322.94304    90.00000    90.00000    90.00000  Step:        4200  Bead:      27 positions{angstrom}  cell{angstrom}
       E -8.42057e+01 -1.11001e+01 -1.00435e+02
       E -6.10172e+01  1.99951e+01 -2.12115e+01
       E -2.75680e+01  1.03604e+01  9.41752e+00
3
# CELL(abcABC): 1322.94304  1322.94304  1322.94304    90.00000    90.00000    90.00000  Step:        4300  Bead:      27 positions{angstrom}  cell{angstrom}
       E -3.81939e+01  2.43511e+01 -7.83920e+01
       E -4.61256e+01  2.99384e+01 -3.82289e+01
       E  2.11908e+01 -7.44371e+00  9.25062e-01
3
# CELL(abcABC): 1322.94304  1322.94304  1322.94304    90.00000    90.00000    90.00000  Step:        4400  Bead:      27 positions{angstrom}  cell{angstrom}
       E -2.53728e+01  3.29082e+01 -4.95239e+01
       E -6.37995e+01  2.29174e+00 -3.08719e+01
       E  2.27876e+01  4.66062e+00  9.26022e+00
3
# CELL(abcABC): 1322.94304  1322.94304  1322.94304    90.00000    90.00000    90.00000  Step:        4500  Bead:      27 positions{angstrom}  cell{angstrom}
       E -7.05274e+01  2.62597e+01 -4.38180e+01
       E -4.41952e+01 -2.97981e+00 -1.32365e+01
       E  4.48317e+00 -2.53027e+01 -2.09494e+00
3
# CELL(abcABC): 1322.94304  1322.94304  1322.94304    90.00000    90.00000    90.00000  Step:        4600  Bead:      27 positions{angstrom}  cell{angstrom}
       E -6.28287e+01  5.58300e+01 -6.51268e+01
       E -4.74572e+01 -3.18472e+00  2.94145e+00
       E -1.28562e+01 -6.02137e+00  3.33541e+01
3
# CELL(abcABC): 1322.94304  1322.94304  1322.94304    90.00000    90.00000    90.00000  Step:        4700  Bead:      27 positions{angstrom}  cell{angstrom}
       E -6.55927e+01  3.52030e+01 -8.50252e+01
       E -3.01458e+01 -1.24633e+01 -2.66707e+01
       E -1.35530e+00 -2.71517e+01  3.41077e+01
3
# CELL(abcABC): 1322.94304  1322.94304  1322.94304    90.00000    90.00000    90.00000  Step:        4800  Bead:      27 positions{angstrom}  cell{angstrom}
       E -5.40669e+01  7.47775e+01 -1.19183e+02
       E -2.90813e+01 -1.38615e+01 -1.44137e+01
       E -1.14253e+01 -2.24620e+01 -8.12009e-01
3
# CELL(abcABC): 1322.94304  1322.94304  1322.94304    90.00000    90.00000    90.00000  Step:        4900  Bead:      27 positions{angstrom}  cell{angstrom}
       E -2.67223e+01  2.62621e+01 -6.41832e+01
       E -2.01604e+01 -1.61527e+00 -3.51042e+01
       E  3.64595e+01 -5.41791e+01  1.61136e+01
3
# CELL(abcABC): 1322.94304  1322.94304  1322.94304    90.00000    90.00000    90.00000  Step:        5000  Bead:      27 positions{angstrom}  cell{angstrom}
       E  7.64184e+00  4.40967e+01 -2.40289e+01
       E  1.46423e+01  4.48531e+00 -3.72339e+01
       E  1.39956e+01 -4.75906e+01  9.19093e+00
3
# CELL(abcABC): 1322.94304  1322.94304  1322.94304    90.00000    90.00000    90.00000  Step:        5100  Bead:      27 positions{angstrom}  cell{angstrom}
       E -6.75208e+00  4.03000e+01 -3.99436e+00
       E  2.43971e+01  2.57935e+01 -7.58080e+00
       E  2.38522e+01 -1.04178e+01  2.09431e+01
3
# CELL(abcABC): 1322.94304  1322.94304  1322.94304    90.00000    90.00000    90.00000  Step:        5200  Bead:      27 positions{angstrom}  cell{angstrom}
       E -4.22766e+01 -1.11593e+00 -3.18151e+01
       E  2.37564e+01  5.41714e+01 -1.52874e+01
       E  1.97950e+01  9.19350e+00  2.74548e+01
3
# CELL(abcABC): 1322.94304  1322.94304  1322.94304    90.00000    90.00000    90.00000  Step:        5300  Bead:      27 positions{angstrom}  cell{angstrom}
       E -1.56523e+01 -2.71325e+01 -2.93263e+01
       E  4.85043e+00  2.11918e+01 -3.04430e+01
       E -4.20016e+01  1.51398e+01  7.14944e+01
3
# CELL(abcABC): 1322.94304  1322.94304  1322.94304    90.00000    90.00000    90.00000  Step:        5400  Bead:      27 positions{angstrom}  cell{angstrom}
       E  1.31656e+00  6.57868e+00 -1.87389e+01
       E -7.44822e+00  4.55351e+01 -6.53946e+00
       E -3.59964e+01  3.83480e+01  4.11384e+01
3
# CELL(abcABC): 1322.94304  1322.94304  1322.94304    90.00000    90.00000    90.00000  Step:        5500  Bead:      27 positions{angstrom}  cell{angstrom}
       E -4.16497e+00  1.38851e+01 -1.02687e+01
       E -2.45558e-01  1.95935e+01 -6.40629e+00
       E -7.44554e+00  4.61033e+01 -5.61865e+00
3
# CELL(abcABC): 1322.94304  1322.94304  1322.94304    90.00000    90.00000    90.00000  Step:        5600  Bead:      27 positions{angstrom}  cell{angstrom}
       E -2.17934e+01  1.30654e+01 -4.00774e+01
       E  1.67119e+01  3.01114e+01  1.61001e+00
       E -4.60910e+00  1.03194e+01  1.78243e+01
3
# CELL(abcABC): 1322.94304  1322.94304  1322.94304    90.00000    90.00000    90.00000  Step:        5700  Bead:      27 positions{angstrom}  cell{angstrom}
       E -1.20927e+00  3.57070e+00 -3.94078e+01
       E  9.64244e+00  1.14123e+01  5.72878e+00
       E -1.59901e+01 -5.01537e-01  1.75825e+01
3
# CELL(abcABC): 1322.94304  1322.94304  1322.94304    90.00000    90.00000    90.00000  Step:        5800  Bead:      27 positions{angstrom}  cell{angstrom}
       E  6.74189e+00  1.14854e-01 -3.22881e+01
       E -1.01005e+01 -1.75541e+01 -1.91433e+01
       E  7.64601e+00 -4.38706e+01 -2.10833e+01
3
# CELL(abcABC): 1322.94304  1322.94304  1322.94304    90.00000    90.00000    90.00000  Step:        5900  Bead:      27 positions{angstrom}  cell{angstrom}
       E -7.89338e+00  1.48655e+00  1.21854e+00
       E  1.25036e+01  4.14607e+01 -2.41464e+01
       E  2.81641e+01 -5.15803e+01  1.97619e+01
3
# CELL(abcABC): 1322.94304  1322.94304  1322.94304    90.00000    90.00000    90.00000  Step:        6000  Bead:      27 positions{angstrom}  cell{angstrom}
       E -2.75521e+01 -5.17371e+01  9.95556e+00
       E  2.29586e+01  2.75443e+01 -7.17566e+01
       E  5.13483e+00 -3.66467e+01  1.37071e-01
3
# CELL(abcABC): 1322.94304  1322.94304  1322.94304    90.00000    90.00000    90.00000  Step:        6100  Bead:      27 positions{angstrom}  cell{angstrom}
       E -1.85837e+01 -6.15863e+01 -1.40118e+01
       E  6.08989e+01 -2.86095e+01 -6.65631e+01
       E  2.91587e+01 -2.81236e+01 -1.32015e+00
3
# CELL(abcABC): 1322.94304  1322.94304  1322.94304    90.00000    90.00000    90.00000  Step:        6200  Bead:      27 positions{angstrom}  cell{angstrom}
       E -2.01459e+01 -4.95174e+01 -3.53367e+01
       E  6.50547e+01  1.58667e+01 -1.83757e+01
       E  1.12508e+01 -6.32739e+01  2.10305e+01
3
# CELL(abcABC): 1322.94304  1322.94304  1322.94304    90.00000    90.00000    90.00000  Step:        6300  Bead:      27 positions{angstrom}  cell{angstrom}
       E  9.77890e+00 -6.68186e+01 -6.57265e+01
       E  7.66758e+01 -8.84270e+00 -3.16059e+01
       E  1.03411e+01 -6.47529e+01  2.71505e+01
3
# CELL(abcABC): 1322.94304  1322.94304  1322.94304    90.00000    90.00000    90.00000  Step:        6400  Bead:      27 positions{angstrom}  cell{angstrom}
       E  4.90951e+01 -6.88487e+01 -9.22460e+01
       E  1.91788e+01 -1.72084e+00 -6.29626e+01
       E  2.51598e+01 -6.31632e+01  1.05456e+01
3
# CELL(abcABC): 1322.94304  1322.94304  1322.94304    90.00000    90.00000    90.00000  Step:        6500  Bead:      27 positions{angstrom}  cell{angstrom}
       E  3.05967e+01 -9.31664e+01 -8.28124e+01
       E -1.26988e-01  2.82618e+01 -5.13536e+01
       E  2.19132e+01 -6.18155e+00 -2.24681e+01
3
# CELL(abcABC): 1322.94304  1322.94304  1322.94304    90.00000    90.00000    90.00000  Step:        6600  Bead:      27 positions{angstrom}  cell{angstrom}
       E  2.18466e+00 -1.16256e+02 -8.60187e+01
       E -6.70658e+00  8.60619e+00 -4.53975e+01
       E  9.47076e+00 -3.68402e+00 -4.23922e+00
3
# CELL(abcABC): 1322.94304  1322.94304  1322.94304    90.00000    90.00000    90.00000  Step:        6700  Bead:      27 positions{angstrom}  cell{angstrom}
       E  3.07852e+01 -1.07239e+02 -1.01997e+02
       E  6.34550e+00 -1.50903e+00 -2.98146e+01
       E  1.70487e+01 -1.32040e+01  4.33682e+00
3
# CELL(abcABC): 1322.94304  1322.94304  1322.94304    90.00000    90.00000    90.00000  Step:        6800  Bead:      27 positions{angstrom}  cell{angstrom}
       E  2.87630e+01 -1.06652e+02 -9.00675e+01
       E -3.48962e+01  3.79183e+00 -1.43174e+00
       E  2.05513e+01 -6.36038e+01  9.06326e+00
3
# CELL(abcABC): 1322.94304  1322.94304  1322.94304    90.00000    90.00000    90.00000  Step:        6900  Bead:      27 positions{angstrom}  cell{angstrom}
       E  2.41606e+01 -1.04009e+02 -2.84445e+01
       E  3.51175e+01  1.16603e+01 -7.35092e+00
       E  2.32492e+01 -5.28855e+01 -1.02957e+01
3
# CELL(abcABC): 1322.94304  1322.94304  1322.94304    90.00000    90.00000    90.00000  Step:        7000  Bead:      27 positions{angstrom}  cell{angstrom}
       E  3.68670e+01 -4.57203e+01 -2.43844e+01
       E  2.35801e+01  4.20278e+01 -2.03703e+01
       E  2.93315e+01 -4.57836e+00 -1.86111e+01
3
# CELL(abcABC): 1322.94304  1322.94304  1322.94304    90.00000    90.00000    90.00000  Step:        7100  Bead:      27 positions{angstrom}  cell{angstrom}
       E -1.23547e+01 -4.33323e+01 -3.08152e+01
       E  3.09529e+01  8.36724e+01  1.58187e+01
       E  2.55958e+01 -2.67779e+01 -1.78147e+01
3
# CELL(abcABC): 1322.94304  1322.94304  1322.94304    90.00000    90.00000    90.00000  Step:        7200  Bead:      27 positions{angstrom}  cell{angstrom}
       E -3.12269e+01 -1.94066e+01 -6.80677e+01
       E -2.90815e+00  5.36217e+01  1.30557e+01
       E  3.04400e+01  1.62108e+01 -1.65527e+01
3
# CELL(abcABC): 1322.94304  1322.94304  1322.94304    90.00000    90.00000    90.00000  Step:        7300  Bead:      27 positions{angstrom}  cell{angstrom}
       E  4.57712e+01 -1.50861e+01 -5.30920e+01
       E -2.53374e+01  4.78123e+01 -1.93705e+00
       E  1.93709e+01  3.52167e+01  1.43284e+01
3
# CELL(abcABC): 1322.94304  1322.94304  1322.94304    90.00000    90.00000    90.00000  Step:        7400  Bead:      27 positions{angstrom}  cell{angstrom}
       E  8.05360e+00 -2.30544e+01 -3.27104e+01
       E  4.03551e+00  3.06586e+01 -5.39204e+01
       E  2.58184e+01  2.67751e+01  3.31256e+01
3
# CELL(abcABC): 1322.94304  1322.94304  1322.94304    90.00000    90.00000    90.00000  Step:        7500  Bead:      27 positions{angstrom}  cell{angstrom}
       E -2.13167e+01 -3.76986e+01 -1.25965e+01
       E  2.59917e+01  1.40022e+01 -2.76302e+01
       E  6.37434e-01  2.30350e+01  1.47489e+01
3
# CELL(abcABC): 1322.94304  1322.94304  1322.94304    90.00000    90.00000    90.00000  Step:        7600  Bead:      27 positions{angstrom}  cell{angstrom}
       E -4.00131e+01 -6.68332e+01 -3.40240e+01
       E -2.58236e+01  2.24289e+00 -3.83939e+00
       E -1.13756e+01 -4.53327e+00 -3.20118e+01
3
# CELL(abcABC): 1322.94304  1322.94304  1322.94304    90.00000    90.00000    90.00000  Step:        7700  Bead:      27 positions{angstrom}  cell{angstrom}
       E  1.45033e+00 -2.96575e+01 -2.49842e+01
       E  1.79141e+01 -4.32390e+00 -7.77293e+00
       E  1.08056e+01 -3.27938e+01 -5.36305e+01
3
# CELL(abcABC): 1322.94304  1322.94304  1322.94304    90.00000    90.00000    90.00000  Step:        7800  Bead:      27 positions{angstrom}  cell{angstrom}
       E  1.06067e+01 -3.60967e+01 -2.38360e+01
       E  2.62649e+01 -1.09200e+01 -3.77096e+01
       E  1.93386e+01 -4.97673e+01 -2.78991e+01
3
# CELL(abcABC): 1322.94304  1322.94304  1322.94304    90.00000    90.00000    90.00000  Step:        7900  Bead:      27 positions{angstrom}  cell{angstrom}
       E  5.07921e+01 -3.36181e+01 -2.23455e+01
       E  3.89011e+01 -3.18748e+01 -4.20521e+01
       E -4.56733e+00 -8.55317e+00 -6.46585e+01
3
# CELL(abcABC): 1322.94304  1322.94304  1322.94304    90.00000    90.00000    90.00000  Step:        8000  Bead:      27 positions{angstrom}  cell{angstrom}
       E  5.65955e+01 -5.25947e+00 -6.72581e+01
       E  1.67450e+01 -5.98537e+00 -7.23618e+01
       E  1.69504e+01 -1.07676e+01  1.04798e+01
3
# CELL(abcABC): 1322.94304  1322.94304  1322.94304    90.00000    90.00000    90.00000  Step:        8100  Bead:      27 positions{angstrom}  cell{angstrom}
       E  3.78430e+01  4.75417e+01 -4.60433e+01
       E -1.44811e+01  1.19376e+01 -5.81585e+01
       E -1.12363e+01 -3.92710e+01  9.29965e+00
3
# CELL(abcABC): 1322.94304  1322.94304  1322.94304    90.00000    90.00000    90.00000  Step:        8200  Bead:      27 positions{angstrom}  cell{angstrom}
       E  3.06650e+01  6.59932e+01  1.14673e+01
       E  2.34521e+01  5.17314e+01  1.07380e+01
       E -2.68304e+01 -4.59681e+01  1.01560e+01
3
# CELL(abcABC): 1322.94304  1322.94304  1322.94304    90.00000    90.00000    90.00000  Step:        8300  Bead:      27 positions{angstrom}  cell{angstrom}
       E  2.47197e+01  7.83733e+01 -2.12323e+01
       E  1.41231e+01 -1.18714e+01 -5.06876e+00
       E  9.28880e+00 -6.01349e+01  1.52913e+01
3
# CELL(abcABC): 1322.94304  1322.94304  1322.94304    90.00000    90.00000    90.00000  Step:        8400  Bead:      27 positions{angstrom}  cell{angstrom}
       E  1.06760e+01 -2.52977e+01 -2.75949e+01
       E  1.07936e+01  3.96877e+01  3.40868e+01
       E -2.72002e+01 -4.52866e+01  7.82107e+01
3
# CELL(abcABC): 1322.94304  1322.94304  1322.94304    90.00000    90.00000    90.00000  Step:        8500  Bead:      27 positions{angstrom}  cell{angstrom}
       E  1.40069e+01 -1.20316e+01 -2.23427e+01
       E  3.57499e+00  6.49548e+00  3.12865e+00
       E -8.80332e+00 -3.31279e+01  2.90944e+01
3
# CELL(abcABC): 1322.94304  1322.94304  1322.94304    90.00000    90.00000    90.00000  Step:        8600  Bead:      27 positions{angstrom}  cell{angstrom}
       E -7.16514e+00 -8.08161e+00 -3.75554e+01
       E  1.93108e+01 -1.50813e+01  3.14197e+01
       E  6.40104e+01 -2.20988e+00  2.57169e+01
3
# CELL(abcABC): 1322.94304  1322.94304  1322.94304    90.00000    90.00000    90.00000  Step:        8700  Bead:      27 positions{angstrom}  cell{angstrom}
       E -1.62147e+01  1.69291e+01 -2.78955e+01
       E  3.47780e+01  7.61323e+00  3.70827e+01
       E  7.09123e+01 -2.95983e+01  2.16094e+01
3
# CELL(abcABC): 1322.94304  1322.94304  1322.94304    90.00000    90.00000    90.00000  Step:        8800  Bead:      27 positions{angstrom}  cell{angstrom}
       E -5.14473e+01  8.87944e+00 -1.72181e+01
       E -3.42113e+00 -1.32536e+01  2.84180e+01
       E  5.06744e+01 -3.85890e+01  2.03085e+01
3
# CELL(abcABC): 1322.94304  1322.94304  1322.94304    90.00000    90.00000    90.00000  Step:        8900  Bead:      27 positions{angstrom}  cell{angstrom}
       E -3.06880e+01  2.92320e+01  1.28392e+01
       E -7.07590e+00 -2.70652e+01  3.13719e+01
       E  6.34109e+00 -6.83010e+01 -1.27052e+01
3
# CELL(abcABC): 1322.94304  1322.94304  1322.94304    90.00000    90.00000    90.00000  Step:        9000  Bead:      27 positions{angstrom}  cell{angstrom}
       E -1.67912e+01  4.80298e+01  1.66785e+01
       E -1.22280e+01 -5.62595e+01  5.19703e+01
       E -5.56450e+00 -7.39743e+01 -1.13478e+01
3
# CELL(abcABC): 1322.94304  1322.94304  1322.94304    90.00000    90.00000    90.00000  Step:        9100  Bead:      27 positions{angstrom}  cell{angstrom}
       E -1.98378e+01  3.22033e+01  2.22803e+00
       E -1.77880e+01  6.08805e+00  4.20907e+01
       E  4.90462e+01 -8.73180e+01  3.98561e+00
3
# CELL(abcABC): 1322.94304  1322.94304  1322.94304    90.00000    90.00000    90.00000  Step:        9200  Bead:      27 positions{angstrom}  cell{angstrom}
       E -4.05389e+00  4.08671e+01 -4.16644e+01
       E -5.20192e+00  8.50420e+00  1.16193e+01
       E  4.38850e+01 -5.92515e+01  1.93362e+01
3
# CELL(abcABC): 1322.94304  1322.94304  1322.94304    90.00000    90.00000    90.00000  Step:        9300  Bead:      27 positions{angstrom}  cell{angstrom}
       E  3.90745e+01 -1.21589e+01 -5.86177e+01
       E -9.69976e+00 -2.62710e+01  6.44641e+01
       E  3.63283e+01 -1.71966e+01 -5.08361e+00
3
# CELL(abcABC): 1322.94304  1322.94304  1322.94304    90.00000    90.00000    90.00000  Step:        9400  Bead:      27 positions{angstrom}  cell{angstrom}
       E  6.16886e+01  2.52724e+01 -5.40097e+01
       E -4.61658e+00 -2.13958e+01  4.05607e+01
       E  1.11908e+01 -4.93728e-01 -1.69130e+01
3
# CELL(abcABC): 1322.94304  1322.94304  1322.94304    90.00000    90.00000    90.00000  Step:        9500  Bead:      27 positions{angstrom}  cell{angstrom}
       E  3.00213e+01  2.33185e+01 -3.45015e+01
       E  2.49215e+01 -1.99447e+01  2.86953e+01
       E  3.08502e+01  3.81234e+00  1.27066e+00
3
# CELL(abcABC): 1322.94304  1322.94304  1322.94304    90.00000    90.00000    90.00000  Step:        9600  Bead:      27 positions{angstrom}  cell{angstrom}
       E  2.54937e+01 -1.98426e+01 -5.14116e+01
       E  4.29758e+01 -4.15015e+01 -1.10689e+01
       E  1.11336e+01 -1.36518e+01 -3.42978e+00
3
# CELL(abcABC): 1322.94304  1322.94304  1322.94304    90.00000    90.00000    90.00000  Step:        9700  Bead:      27 positions{angstrom}  cell{angstrom}
       E -1.96278e+01 -5.53471e+01 -6.74227e+01
       E  3.92189e+01 -8.20526e+01  9.78555e-01
       E -5.18785e+01 -9.10113e+00 -9.37798e+00
3
# CELL(abcABC): 1322.94304  1322.94304  1322.94304    90.00000    90.00000    90.00000  Step:        9800  Bead:      27 positions{angstrom}  cell{angstrom}
       E -3.29503e+01 -5.58013e+01 -2.81551e+01
       E  4.30865e+01 -4.23354e+01 -7.95187e+00
       E -2.49858e+01 -1.97674e+01 -7.18087e+00
3