3
# CELL(abcABC): 1322.94304  1322.94304  1322.94304    90.00000    90.00000    90.00000  Step:           0  Bead:      22 positions{angstrom}  cell{angstrom}
       E  0.00000e+00  0.00000e+00  0.00000e+00
       E  0.00000e+00  0.00000e+00  0.00000e+00
       E  0.00000e+00  0.00000e+00  0.00000e+00
3
# CELL(abcABC): 1322.94304  1322.94304  1322.94304    90.00000    90.00000    90.00000  Step:         100  Bead:      22 positions{angstrom}  cell{angstrom}
       E  3.04104e+01  6.00584e+00 -1.84524e+01
       E -1.68677e+01 -4.26226e+01 -1.82146e+01
       E -9.75184e+00  3.08255e+01  5.53189e+00
3
# CELL(abcABC): 1322.94304  1322.94304  1322.94304    90.00000    90.00000    90.00000  Step:         200  Bead:      22 positions{angstrom}  cell{angstrom}
       E  3.38432e+00 -3.12682e+00  6.76601e+00
       E  1.42140e+01 -7.37712e+01 -9.13995e+00
       E  2.32833e+01  4.26574e+01 -5.56177e+00
3
# CELL(abcABC): 1322.94304  1322.94304  1322.94304    90.00000    90.00000    90.00000  Step:         300  Bead:      22 positions{angstrom}  cell{angstrom}
       E  1.79710e+01  2.42826e+00  2.76405e+01
       E -6.05550e+00 -1.38664e+01  2.44889e+01
       E  8.72565e+00 -9.65631e+00 -1.31090e+01
3
# CELL(abcABC): 1322.94304  1322.94304  1322.94304    90.00000    90.00000    90.00000  Step:         400  Bead:      22 positions{angstrom}  cell{angstrom}
       E  2.14706e-02  9.38255e+00 -2.06965e+00
       E  1.64728e+01 -1.69126e+01 -1.81206e+01
       E  8.07695e+00  6.99488e+00  6.47591e-01
3
# CELL(abcABC): 1322.94304  1322.94304  1322.94304    90.00000    90.00000    90.00000  Step:         500  Bead:      22 positions{angstrom}  cell{angstrom}
       E -7.37973e+00 -1.82969e+00 -3.17749e+01
       E  9.25073e+00 -1.64581e+00  1.45263e+01
       E -3.91410e+00 -1.29549e+01 -2.96537e+00
3
# CELL(abcABC): 1322.94304  1322.94304  1322.94304    90.00000    90.00000    90.00000  Step:         600  Bead:      22 positions{angstrom}  cell{angstrom}
       E  3.96644e+01 -1.08784e+01 -3.22605e+01
       E  1.84993e+01  3.37410e+00 -1.34981e+01
       E  8.54857e+00  3.38828e+00  5.07841e+00
3
# CELL(abcABC): 1322.94304  1322.94304  1322.94304    90.00000    90.00000    90.00000  Step:         700  Bead:      22 positions{angstrom}  cell{angstrom}
       E  3.17355e+01 -1.26392e+01 -3.87781e+00
       E  3.47408e+01 -6.84584e+00  9.06498e+00
       E -1.43252e+01 -9.90991e+00  3.55291e+01
3
# CELL(abcABC): 1322.94304  1322.94304  1322.94304    90.00000    90.00000    90.00000  Step:         800  Bead:      22 positions{angstrom}  cell{angstrom}
       E  2.09761e+01 -2.45625e+00  2.26916e+01
       E  4.60602e+01  2.48030e+01  4.56813e+00
       E -1.78538e+01 -1.73943e+01  5.85493e+01
3
# CELL(abcABC): 1322.94304  1322.94304  1322.94304    90.00000    90.00000    90.00000  Step:         900  Bead:      22 positions{angstrom}  cell{angstrom}
       E  1.43820e+01  3.80028e+01 -2.39915e+01
       E -8.11494e+00 -1.10817e+01  8.82780e+00
       E -4.52889e+01 -1.26474e+01  7.14168e+01
3
# CELL(abcABC): 1322.94304  1322.94304  1322.94304    90.00000    90.00000    90.00000  Step:        1000  Bead:      22 positions{angstrom}  cell{angstrom}
       E  1.06421e+01  1.16658e-01 -1.52014e+01
       E -1.51792e+01  2.49701e+01 -3.24124e+01
       E -1.94151e+01 -1.62947e+01  4.90172e+01
3
# CELL(abcABC): 1322.94304  1322.94304  1322.94304    90.00000    90.00000    90.00000  Step:        1100  Bead:      22 positions{angstrom}  cell{angstrom}
       E -1.64931e+01  2.28529e+00 -3.70133e+01
       E -1.98968e+01  4.00646e+00  1.60099e+00
       E  2.54902e+01  3.03071e+01  2.32672e+01
3
# CELL(abcABC): 1322.94304  1322.94304  1322.94304    90.00000    90.00000    90.00000  Step:        1200  Bead:      22 positions{angstrom}  cell{angstrom}
       E  2.91706e+00 -1.35545e+00 -4.38281e+01
       E -5.05588e+00  6.85583e+00  6.23257e+00
       E  1.52871e+01  5.00902e+01 -2.81421e+01
3
# CELL(abcABC): 1322.94304  1322.94304  1322.94304    90.00000    90.00000    90.00000  Step:        1300  Bead:      22 positions{angstrom}  cell{angstrom}
       E  6.41231e+00  1.91508e+01 -6.64964e+01
       E  6.41862e+00  1.07729e+00 -4.76208e+01
       E  1.10402e+01  2.20043e+01 -1.90693e+01
3
# CELL(abcABC): 1322.94304  1322.94304  1322.94304    90.00000    90.00000    90.00000  Step:        1400  Bead:      22 positions{angstrom}  cell{angstrom}
       E  2.61012e+00  3.24113e+01 -6.08595e+01
       E -2.00538e+00  2.95491e+01 -1.76048e+01
       E  1.81712e+01 -3.06685e+01 -1.43740e+01
3
# CELL(abcABC): 1322.94304  1322.94304  1322.94304    90.00000    90.00000    90.00000  Step:        1500  Bead:      22 positions{angstrom}  cell{angstrom}
       E -1.72007e+00  4.40852e+01 -5.87139e+01
       E -5.08596e+01  6.65008e+01  3.28118e+00
       E  1.01232e+01 -2.46707e+01 -1.90279e+01
3
# CELL(abcABC): 1322.94304  1322.94304  1322.94304    90.00000    90.00000    90.00000  Step:        1600  Bead:      22 positions{angstrom}  cell{angstrom}
       E -1.49755e+01  2.50405e+01 -3.34378e+01
       E -5.28881e+01  4.32031e+01  1.70726e+00
       E  3.78313e+01  2.34643e+01 -9.66973e+00
3
# CELL(abcABC): 1322.94304  1322.94304  1322.94304    90.00000    90.00000    90.00000  Step:        1700  Bead:      22 positions{angstrom}  cell{angstrom}
       E -1.91357e+01  4.38507e+01 -2.89904e+01
       E -3.26926e+01  6.67640e+01  4.61515e+01
       E  1.57654e+01  4.12970e+01 -3.06768e+01
3
# CELL(abcABC): 1322.94304  1322.94304  1322.94304    90.00000    90.00000    90.00000  Step:        1800  Bead:      22 positions{angstrom}  cell{angstrom}
       E -9.64181e-01  2.25789e+01  2.08148e+01
       E -6.37489e+01  7.92790e+01  3.77998e+01
       E -4.35962e+01  1.70191e+01  4.25077e+00
3
# CELL(abcABC): 1322.94304  1322.94304  1322.94304    90.00000    90.00000    90.00000  Step:        1900  Bead:      22 positions{angstrom}  cell{angstrom}
       E  2.63530e+01 -7.39450e+00  3.99253e+01
       E -4.43213e+01  9.42432e+01 -1.20201e+01
       E -7.86510e+01  1.28925e+01  1.72536e+01
3
# CELL(abcABC): 1322.94304  1322.94304  1322.94304    90.00000    90.00000    90.00000  Step:        2000  Bead:      22 positions{angstrom}  cell{angstrom}
       E -3.42195e+01 -4.44159e+01  5.97480e+01
       E -5.83878e+01  2.61592e+01  9.33986e+00
       E -5.22248e+01  7.02374e+01 -1.73522e+01
3
# CELL(abcABC): 1322.94304  1322.94304  1322.94304    90.00000    90.00000    90.00000  Step:        2100  Bead:      22 positions{angstrom}  cell{angstrom}
       E -4.80177e+01 -5.12580e+01  5.53533e+01
       E -3.38052e+01  3.59912e+01  1.42593e+01
       E -5.67061e+01  7.02765e+01  4.00824e+01
3
# CELL(abcABC): 1322.94304  1322.94304  1322.94304    90.00000    90.00000    90.00000  Step:        2200  Bead:      22 positions{angstrom}  cell{angstrom}
       E -1.84711e+00 -5.40370e+01  8.03482e+00
       E -4.26831e+01  5.76421e+00  8.15317e+00
       E -3.87174e+01  7.63480e-01 -7.24342e+00
3
# CELL(abcABC): 1322.94304  1322.94304  1322.94304    90.00000    90.00000    90.00000  Step:        2300  Bead:      22 positions{angstrom}  cell{angstrom}
       E -2.19584e+01 -6.92422e+01  5.22444e+01
       E -6.58307e+01  3.19720e+01 -2.08495e+01
       E -3.70010e+01 -1.01698e+00 -2.87377e+01
3
# CELL(abcABC): 1322.94304  1322.94304  1322.94304    90.00000    90.00000    90.00000  Step:        2400  Bead:      22 positions{angstrom}  cell{angstrom}
       E -2.55527e+01 -1.35680e+01  1.82253e+01
       E -1.98906e+01  1.19505e+01 -1.17687e+01
       E -9.44584e-01 -2.81900e+01  1.86845e+00
3
# CELL(abcABC): 1322.94304  1322.94304  1322.94304    90.00000    90.00000    90.00000  Step:        2500  Bead:      22 positions{angstrom}  cell{angstrom}
       E -5.47085e+01 -2.83161e+01  1.42719e+01
       E -3.64022e+01  3.11591e-01 -7.72134e+00
       E  3.67672e+01 -4.59584e+01  1.14186e+01
3
# CELL(abcABC): 1322.94304  1322.94304  1322.94304    90.00000    90.00000    90.00000  Step:        2600  Bead:      22 positions{angstrom}  cell{angstrom}
       E -5.51934e+01 -2.08793e+00  3.11079e+01
       E -7.70351e+01 -5.22559e-01 -1.37760e+01
       E  3.85917e+01 -2.77093e+01  7.44952e+01
3
# CELL(abcABC): 1322.94304  1322.94304  1322.94304    90.00000    90.00000    90.00000  Step:        2700  Bead:      22 positions{angstrom}  cell{angstrom}
       E -6.35458e+01 -2.08731e+01  3.51285e+01
       E -5.11312e+01 -2.28120e+01 -1.07301e+01
       E  1.12416e+01 -8.29882e+01  3.50298e+01
3
# CELL(abcABC): 1322.94304  1322.94304  1322.94304    90.00000    90.00000    90.00000  Step:        2800  Bead:      22 positions{angstrom}  cell{angstrom}
       E -4.28046e+01 -2.21570e+01  8.59852e+01
       E -6.71790e+01 -3.85717e+01  2.69492e+01
       E  1.41268e+01 -4.76524e+01  1.24772e+01
3
# CELL(abcABC): 1322.94304  1322.94304  1322.94304    90.00000    90.00000    90.00000  Step:        2900  Bead:      22 positions{angstrom}  cell{angstrom}
       E -7.28912e+01 -3.75346e+01  7.64667e+01
       E -7.23256e+01 -4.90805e+01  4.69038e+01
       E  1.29825e+01 -2.43756e+01  2.04854e+00
3
# CELL(abcABC): 1322.94304  1322.94304  1322.94304    90.00000    90.00000    90.00000  Step:        3000  Bead:      22 positions{angstrom}  cell{angstrom}
       E -6.26121e+01 -6.90675e+01  8.09950e+01
       E -6.20223e+01 -3.07623e+01  1.44932e+01
       E -2.48544e+00  7.51164e+00 -9.20603e+00
3
# CELL(abcABC): 1322.94304  1322.94304  1322.94304    90.00000    90.00000    90.00000  Step:        3100  Bead:      22 positions{angstrom}  cell{angstrom}
       E -7.27826e+01 -2.94586e+01  8.32003e+01
       E -7.11780e+01 -2.62097e+01  4.99366e+01
       E  5.03773e+01  4.10794e+01 -5.29319e+00
3
# CELL(abcABC): 1322.94304  1322.94304  1322.94304    90.00000    90.00000    90.00000  Step:        3200  Bead:      22 positions{angstrom}  cell{angstrom}
       E -1.03887e+02 -1.10029e+01  2.34191e+01
       E -6.08077e+01  8.43028e+00  5.57059e+01
       E  1.38106e+01  3.92866e+01  1.03323e+01
3
# CELL(abcABC): 1322.94304  1322.94304  1322.94304    90.00000    90.00000    90.00000  Step:        3300  Bead:      22 positions{angstrom}  cell{angstrom}
       E -4.90000e+01 -5.61271e+00  4.48877e+01
       E -7.04154e+01 -2.11873e+00  6.86284e+01
       E -4.07157e+00  2.69747e+01 -3.87509e+01
3
# CELL(abcABC): 1322.94304  1322.94304  1322.94304    90.00000    90.00000    90.00000  Step:        3400  Bead:      22 positions{angstrom}  cell{angstrom}
       E -8.50311e+01  1.00110e+00  7.80471e+01
       E -3.52543e+01  1.38036e+01  5.09627e+01
       E -1.08300e+00 -1.04261e+00  7.05859e+00
3
# CELL(abcABC): 1322.94304  1322.94304  1322.94304    90.00000    90.00000    90.00000  Step:        3500  Bead:      22 positions{angstrom}  cell{angstrom}
       E -1.05960e+02 -1.12065e+01  7.38966e+01
       E  1.25444e+01  1.73487e+01  4.77606e+01
       E -1.12250e+01  8.51628e-01  1.18710e+01
3
# CELL(abcABC): 1322.94304  1322.94304  1322.94304    90.00000    90.00000    90.00000  Step:        3600  Bead:      22 positions{angstrom}  cell{angstrom}
       E -1.10949e+02 -1.24834e+01  3.80195e+01
       E  1.87318e+01  1.54092e+00  3.94752e+01
       E -3.47300e+01 -1.41269e+01  1.39509e+01
3
# CELL(abcABC): 1322.94304  1322.94304  1322.94304    90.00000    90.00000    90.00000  Step:        3700  Bead:      22 positions{angstrom}  cell{angstrom}
       E -8.97668e+01  2.20881e+00  8.59040e-01
       E -5.38946e+00 -5.28223e+00  2.21392e+01
       E -5.14745e+01 -6.36273e+00  1.52721e+01
3
# CELL(abcABC): 1322.94304  1322.94304  1322.94304    90.00000    90.00000    90.00000  Step:        3800  Bead:      22 positions{angstrom}  cell{angstrom}
       E -6.61949e+01 -8.30384e+00 -1.90680e+01
       E -1.62845e+01 -1.67442e+00  5.06904e+01
       E -4.83140e+01 -1.45849e+01 -1.20483e+01
3
# CELL(abcABC): 1322.94304  1322.94304  1322.94304    90.00000    90.00000    90.00000  Step:        3900  Bead:      22 positions{angstrom}  cell{angstrom}
       E -6.87432e+01 -1.68302e+01 -3.68096e+01
       E -2.23606e+01  8.13691e+00  3.22882e+01
       E -1.46666e+01 -2.65479e+01 -3.39370e+00
3
# CELL(abcABC): 1322.94304  1322.94304  1322.94304    90.00000    90.00000    90.00000  Step:        4000  Bead:      22 positions{angstrom}  cell{angstrom}
       E -7.48126e+01 -1.30625e+01 -6.17403e+01
       E -4.93164e+01  1.76343e+01  4.79478e+01
       E -1.35891e+01  1.08387e+01  3.50790e+01
3
# CELL(abcABC): 1322.94304  1322.94304  1322.94304    90.00000    90.00000    90.00000  Step:        4100  Bead:      22 positions{angstrom}  cell{angstrom}
       E -8.00308e+01  3.25963e+00 -9.99442e+01
       E -4.23276e+01  1.12160e+01 -1.88041e+01
       E -1.75815e+01  1.07945e+00  2.54266e+01
3
# CELL(abcABC): 1322.94304  1322.94304  1322.94304    90.00000    90.00000    90.00000  Step:        4200  Bead:      22 positions{angstrom}  cell{angstrom}
       E -7.47382e+01 -2.87254e+01 -1.18647e+02
       E -6.79173e+01  1.43008e+01  1.40985e+01
       E  3.97783e+00  3.59697e+01  3.69425e+01
3
# CELL(abcABC): 1322.94304  1322.94304  1322.94304    90.00000    90.00000    90.00000  Step:        4300  Bead:      22 positions{angstrom}  cell{angstrom}
       E -3.72311e+01  1.14782e+01 -4.45914e+01
       E -2.67809e+01  2.36444e+01 -1.69857e+01
       E  8.54488e+00  2.11883e+01  3.75172e+01
3
# CELL(abcABC): 1322.94304  1322.94304  1322.94304    90.00000    90.00000    90.00000  Step:        4400  Bead:      22 positions{angstrom}  cell{angstrom}
       E -4.64013e+01  2.73698e+01 -4.40514e+01
       E -1.45587e+01  3.66507e+01 -5.17796e+01
       E  3.43273e+01 -2.40930e+01  5.96746e+00
3
# CELL(abcABC): 1322.94304  1322.94304  1322.94304    90.00000    90.00000    90.00000  Step:        4500  Bead:      22 positions{angstrom}  cell{angstrom}
       E -5.16203e+01  3.94473e+01 -2.64557e+01
       E -3.05857e+01  3.55425e+01 -5.47056e+01
       E  3.02603e+01 -3.78639e+00  3.30553e+01
3
# CELL(abcABC): 1322.94304  1322.94304  1322.94304    90.00000    90.00000    90.00000  Step:        4600  Bead:      22 positions{angstrom}  cell{angstrom}
       E -5.64202e+01  3.42760e+01 -7.91317e+00
       E -2.84623e+01  4.73449e+01 -1.04581e+01
       E -1.82508e+01  1.49416e+01  1.84231e+01
3
# CELL(abcABC): 1322.94304  1322.94304  1322.94304    90.00000    90.00000    90.00000  Step:        4700  Bead:      22 positions{angstrom}  cell{angstrom}
       E -2.17916e+01  2.85976e+01 -7.57556e+01
       E -5.20543e+01  3.12300e+01 -1.67686e+01
       E -2.36934e+01 -2.14462e+01  6.21631e+00
3
# CELL(abcABC): 1322.94304  1322.94304  1322.94304    90.00000    90.00000    90.00000  Step:        4800  Bead:      22 positions{angstrom}  cell{angstrom}
       E -3.12964e+01 -3.57452e+00 -3.56551e+01
       E -3.09982e+01  8.23042e+00 -1.45987e+01
       E  1.16535e+01 -6.89555e+00  3.53414e+01
3
# CELL(abcABC): 1322.94304  1322.94304  1322.94304    90.00000    90.00000    90.00000  Step:        4900  Bead:      22 positions{angstrom}  cell{angstrom}
       E -2.04878e+00 -6.85009e+00 -2.40863e+01
       E -1.59832e+01 -1.00033e+01 -3.17825e+01
       E -1.12082e+01 -2.20358e+01 -1.84692e+01
3
# CELL(abcABC): 1322.94304  1322.94304  1322.94304    90.00000    90.00000    90.00000  Step:        5000  Bead:      22 positions{angstrom}  cell{angstrom}
       E  7.68027e+00 -1.64204e+01  1.25208e+01
       E -1.77057e+01 -4.66821e-01 -6.30801e+01
       E  2.21730e+00  1.12681e+01 -1.11427e+01
3
# CELL(abcABC): 1322.94304  1322.94304  1322.94304    90.00000    90.00000    90.00000  Step:        5100  Bead:      22 positions{angstrom}  cell{angstrom}
       E -5.77039e+01 -7.75896e-01  2.93295e+01
       E  3.20929e-01 -3.87958e+00 -4.44442e+01
       E  2.77362e+01  6.98955e+00 -3.04858e+01
3
# CELL(abcABC): 1322.94304  1322.94304  1322.94304    90.00000    90.00000    90.00000  Step:        5200  Bead:      22 positions{angstrom}  cell{angstrom}
       E -8.19398e+01 -2.22310e+01  2.03181e+01
       E  1.80178e+01  2.28852e+01 -4.30894e+01
       E  2.19860e+01  9.05712e+00  2.14851e+01
3
# CELL(abcABC): 1322.94304  1322.94304  1322.94304    90.00000    90.00000    90.00000  Step:        5300  Bead:      22 positions{angstrom}  cell{angstrom}
       E -4.91441e+01 -3.17689e+01  1.35332e+01
       E  2.20694e+01  5.18828e+01 -3.77390e+01
       E -5.05261e+01  1.86952e+01  2.46717e+01
3
# CELL(abcABC): 1322.94304  1322.94304  1322.94304    90.00000    90.00000    90.00000  Step:        5400  Bead:      22 positions{angstrom}  cell{angstrom}
       E  9.02125e-01  1.31333e+01 -2.38880e+01
       E  1.56823e+01 -2.86877e+01  8.12311e+00
       E -3.17959e+01  2.36446e+01  2.72440e+01
3
# CELL(abcABC): 1322.94304  1322.94304  1322.94304    90.00000    90.00000    90.00000  Step:        5500  Bead:      22 positions{angstrom}  cell{angstrom}
       E  4.15529e+01 -2.51299e+01 -3.74756e+01
       E -2.64655e+00  2.83207e+01 -1.39418e+01
       E -2.62807e+01  2.44336e+00  3.92769e+01
3
# CELL(abcABC): 1322.94304  1322.94304  1322.94304    90.00000    90.00000    90.00000  Step:        5600  Bead:      22 positions{angstrom}  cell{angstrom}
       E -1.68392e+01  1.24196e+01 -2.95162e+01
       E -1.04906e-01  2.00664e+01  8.51952e+00
       E -4.66951e+01 -5.92756e+00  3.24017e+01
3
# CELL(abcABC): 1322.94304  1322.94304  1322.94304    90.00000    90.00000    90.00000  Step:        5700  Bead:      22 positions{angstrom}  cell{angstrom}
       E  6.91871e+00 -1.31084e+01 -4.70141e+01
       E -3.27683e+01 -1.56913e+00 -3.97990e+00
       E -2.99593e+01  8.18830e+00 -1.15922e-01
3
# CELL(abcABC): 1322.94304  1322.94304  1322.94304    90.00000    90.00000    90.00000  Step:        5800  Bead:      22 positions{angstrom}  cell{angstrom}
       E -6.43981e+00 -2.33892e+00 -4.08614e+01
       E -3.21411e+01  1.48668e+01 -4.68420e+00
       E -2.17274e+00  6.28402e+00  1.39077e+00
3
# CELL(abcABC): 1322.94304  1322.94304  1322.94304    90.00000    90.00000    90.00000  Step:        5900  Bead:      22 positions{angstrom}  cell{angstrom}
       E  2.22138e+01  5.17180e+00 -2.32671e+01
       E -1.31944e+01  1.06687e+01  1.44133e-01
       E  1.53880e+01 -4.17218e+01 -2.24006e+01
3
# CELL(abcABC): 1322.94304  1322.94304  1322.94304    90.00000    90.00000    90.00000  Step:        6000  Bead:      22 positions{angstrom}  cell{angstrom}
       E -2.99321e+01 -4.57224e+01 -2.83682e+01
       E  3.18172e+01 -2.44929e+00 -2.29238e+01
       E  2.57968e+01 -1.59440e+01  3.00645e+00
3
# CELL(abcABC): 1322.94304  1322.94304  1322.94304    90.00000    90.00000    90.00000  Step:        6100  Bead:      22 positions{angstrom}  cell{angstrom}
       E -3.40869e+01 -6.15668e+01 -1.80401e+01
       E  9.10434e+01  4.89299e+01 -4.67419e+01
       E  2.21277e+01 -3.93007e+01 -3.74646e+00
3
# CELL(abcABC): 1322.94304  1322.94304  1322.94304    90.00000    90.00000    90.00000  Step:        6200  Bead:      22 positions{angstrom}  cell{angstrom}
       E -4.62461e+00 -2.16805e+01 -8.63068e+01
       E  1.36961e+02  3.45638e+01 -4.30018e-01
       E  3.81400e+01 -3.89034e+01 -4.19552e-01
3
# CELL(abcABC): 1322.94304  1322.94304  1322.94304    90.00000    90.00000    90.00000  Step:        6300  Bead:      22 positions{angstrom}  cell{angstrom}
       E  3.19243e+01 -6.01007e+01 -1.13684e+02
       E  7.32133e+01  1.80388e+00 -4.81122e+01
       E  7.73311e+00 -3.21655e+01  2.09993e+00
3
# CELL(abcABC): 1322.94304  1322.94304  1322.94304    90.00000    90.00000    90.00000  Step:        6400  Bead:      22 positions{angstrom}  cell{angstrom}
       E  6.64893e+01 -5.97529e+01 -1.10488e+02
       E  1.02089e+01 -1.53808e+01 -5.83560e+01
       E  3.22506e+01 -4.43251e+01 -3.60032e+01
3
# CELL(abcABC): 1322.94304  1322.94304  1322.94304    90.00000    90.00000    90.00000  Step:        6500  Bead:      22 positions{angstrom}  cell{angstrom}
       E  4.19699e+01 -8.48174e+01 -9.30990e+01
       E  1.61250e+01  5.66743e+01 -6.82076e+01
       E  5.96210e+01 -1.57673e+01  8.41004e+00
3
# CELL(abcABC): 1322.94304  1322.94304  1322.94304    90.00000    90.00000    90.00000  Step:        6600  Bead:      22 positions{angstrom}  cell{angstrom}
       E  2.44890e+00 -1.11070e+02 -6.29987e+01
       E -5.40949e+00  2.63201e+00 -5.36715e+01
       E  5.98483e+01  6.51474e+00  5.87675e+00
3
# CELL(abcABC): 1322.94304  1322.94304  1322.94304    90.00000    90.00000    90.00000  Step:        6700  Bead:      22 positions{angstrom}  cell{angstrom}
       E -1.83631e+01 -1.06844e+02 -7.05262e+01
       E  2.39202e+01 -1.27619e+01 -1.50460e+01
       E  4.99368e+01  3.42892e+00  2.38139e+01
3
# CELL(abcABC): 1322.94304  1322.94304  1322.94304    90.00000    90.00000    90.00000  Step:        6800  Bead:      22 positions{angstrom}  cell{angstrom}
       E  1.34079e+01 -1.12409e+02 -5.41313e+01
       E  5.05808e+01 -1.20674e+01  3.14419e+00
       E  3.09901e+01 -1.91655e+01 -1.64248e+01
3
# CELL(abcABC): 1322.94304  1322.94304  1322.94304    90.00000    90.00000    90.00000  Step:        6900  Bead:      22 positions{angstrom}  cell{angstrom}
       E  2.71015e+01 -7.31885e+01 -4.29415e+01
       E  4.04401e+01 -3.34825e+01  1.28501e+00
       E -1.61732e+01 -1.71211e+01 -6.16339e+01
3
# CELL(abcABC): 1322.94304  1322.94304  1322.94304    90.00000    90.00000    90.00000  Step:        7000  Bead:      22 positions{angstrom}  cell{angstrom}
       E  2.03229e+01 -3.69379e+01 -6.92185e+00
       E  4.76016e+01  1.98318e+01 -2.45251e+01
       E  4.04214e+01 -1.24368e+01 -6.08939e+01
3
# CELL(abcABC): 1322.94304  1322.94304  1322.94304    90.00000    90.00000    90.00000  Step:        7100  Bead:      22 positions{angstrom}  cell{angstrom}
       E  6.83704e+01 -1.31300e+01 -2.72138e+01
       E  2.47151e+01  1.29108e+01  2.09520e+01
       E  4.28793e+01  1.33585e+01 -4.16454e+01
3
# CELL(abcABC): 1322.94304  1322.94304  1322.94304    90.00000    90.00000    90.00000  Step:        7200  Bead:      22 positions{angstrom}  cell{angstrom}
       E  1.30778e+01 -2.74658e+01 -4.48977e+01
       E -3.46988e+01  6.38599e+01 -4.52411e+00
       E  7.22862e+01  4.29223e+01 -4.36529e+01
3
# CELL(abcABC): 1322.94304  1322.94304  1322.94304    90.00000    90.00000    90.00000  Step:        7300  Bead:      22 positions{angstrom}  cell{angstrom}
       E  3.91015e+01 -3.37783e+01 -4.04448e+01
       E -1.21457e+01  2.81803e+01  7.72354e+00
       E  5.18874e+01  1.20463e+01  1.54688e-01
3
# CELL(abcABC): 1322.94304  1322.94304  1322.94304    90.00000    90.00000    90.00000  Step:        7400  Bead:      22 positions{angstrom}  cell{angstrom}
       E -7.66172e+00 -3.91397e+01 -1.63906e+01
       E -7.65457e+00 -1.76156e+01 -1.33998e+01
       E  2.53716e+01  4.93973e+01  1.00997e+01
3
# CELL(abcABC): 1322.94304  1322.94304  1322.94304    90.00000    90.00000    90.00000  Step:        7500  Bead:      22 positions{angstrom}  cell{angstrom}
       E -2.72213e+01 -5.25621e+01 -4.05269e+01
       E  1.71749e+00 -1.15815e+01 -2.07433e+01
       E  4.92345e+01 -7.75528e+00  2.06359e+01
3
# CELL(abcABC): 1322.94304  1322.94304  1322.94304    90.00000    90.00000    90.00000  Step:        7600  Bead:      22 positions{angstrom}  cell{angstrom}
       E -1.55769e+01 -3.93670e+01 -5.10150e+01
       E -1.04690e+01 -1.96122e+01 -1.92958e+01
       E  1.35220e+01 -7.67318e+00 -2.48245e+01
3
# CELL(abcABC): 1322.94304  1322.94304  1322.94304    90.00000    90.00000    90.00000  Step:        7700  Bead:      22 positions{angstrom}  cell{angstrom}
       E -2.46486e+00 -5.89157e+01 -3.21775e+01
       E  1.81685e+01 -9.45660e+00 -2.60104e+01
       E  3.31137e+01 -4.86383e+01 -1.91706e+01
3
# CELL(abcABC): 1322.94304  1322.94304  1322.94304    90.00000    90.00000    90.00000  Step:        7800  Bead:      22 positions{angstrom}  cell{angstrom}
       E  2.86240e+01 -4.55125e+01 -2.47809e+01
       E  3.48792e+01  7.05266e+00 -3.73818e+01
       E  1.77370e+01 -5.02587e+01 -4.11534e+01
3
# CELL(abcABC): 1322.94304  1322.94304  1322.94304    90.00000    90.00000    90.00000  Step:        7900  Bead:      22 positions{angstrom}  cell{angstrom}
       E  6.01832e+01 -4.40330e+01 -4.47415e+01
       E  3.53798e+01 -1.92655e+01 -6.54492e+01
       E -3.48677e+01 -5.35087e+01 -2.80267e+01
3
# CELL(abcABC): 1322.94304  1322.94304  1322.94304    90.00000    90.00000    90.00000  Step:        8000  Bead:      22 positions{angstrom}  cell{angstrom}
       E  5.11902e+01 -2.54133e+01 -6.85772e+00
       E -2.11234e+00  3.24170e+01 -4.13142e+01
       E -1.84687e+01 -2.48081e+01 -4.44735e+01
3
# CELL(abcABC): 1322.94304  1322.94304  1322.94304    90.00000    90.00000    90.00000  Step:        8100  Bead:      22 positions{angstrom}  cell{angstrom}
       E  1.81621e+01  2.01896e+01 -3.45244e+01
       E -2.67723e+01  3.14959e+01 -2.51953e+01
       E -1.55909e+01 -1.12591e+01 -5.77203e+00
3
# CELL(abcABC): 1322.94304  1322.94304  1322.94304    90.00000    90.00000    90.00000  Step:        8200  Bead:      22 positions{angstrom}  cell{angstrom}
       E  1.15949e+01  1.63226e+01 -2.99997e+01
       E  5.44344e+00  1.79421e+01 -3.02954e+01
       E -2.39455e+01 -4.77983e+01  2.73451e+01
3
# CELL(abcABC): 1322.94304  1322.94304  1322.94304    90.00000    90.00000    90.00000  Step:        8300  Bead:      22 positions{angstrom}  cell{angstrom}
       E -1.39440e+01  3.73474e+01 -6.39423e+00
       E  5.69747e+00  2.79230e+01 -1.24277e+01
       E -1.63795e+01 -5.50721e+01  5.21216e+01
3
# CELL(abcABC): 1322.94304  1322.94304  1322.94304    90.00000    90.00000    90.00000  Step:        8400  Bead:      22 positions{angstrom}  cell{angstrom}
       E -3.11130e+01  2.03208e+01 -1.13705e+01
       E  2.15158e+01  2.42321e+01 -8.43543e-01
       E -3.50087e+01 -7.04227e+01  3.46802e+01
3
# CELL(abcABC): 1322.94304  1322.94304  1322.94304    90.00000    90.00000    90.00000  Step:        8500  Bead:      22 positions{angstrom}  cell{angstrom}
       E -6.25450e+00 -1.37836e+01 -3.61140e+01
       E  1.70272e+01  2.65992e+01  1.53211e+01
       E  2.81250e+00 -4.29121e+01  7.53475e+01
3
# CELL(abcABC): 1322.94304  1322.94304  1322.94304    90.00000    90.00000    90.00000  Step:        8600  Bead:      22 positions{angstrom}  cell{angstrom}
       E  1.90379e+00 -2.25247e+01 -2.35592e+01
       E  1.70169e+01  2.20020e+01  2.37104e+01
       E  6.48565e+01 -1.81946e+01  6.02534e+01
3
# CELL(abcABC): 1322.94304  1322.94304  1322.94304    90.00000    90.00000    90.00000  Step:        8700  Bead:      22 positions{angstrom}  cell{angstrom}
       E -2.36241e+00 -6.50181e+00 -4.20671e+00
       E  2.51899e+01 -5.23173e+00  2.17634e+01
       E  4.24822e+01 -2.33680e+01  2.02711e+01
3
# CELL(abcABC): 1322.94304  1322.94304  1322.94304    90.00000    90.00000    90.00000  Step:        8800  Bead:      22 positions{angstrom}  cell{angstrom}
       E -3.84787e+01  1.92030e+01 -1.65043e+01
       E  6.54359e+00 -1.28089e+01  1.08499e+01
       E  9.30492e+01 -5.98077e+01 -2.13112e+01
3
# CELL(abcABC): 1322.94304  1322.94304  1322.94304    90.00000    90.00000    90.00000  Step:        8900  Bead:      22 positions{angstrom}  cell{angstrom}
       E -5.42596e+01  1.70078e+01  2.67511e+01
       E  3.81101e+01 -2.71156e+01  9.59417e+00
       E  6.69472e+01 -7.40778e+01  1.77873e+00
3
# CELL(abcABC): 1322.94304  1322.94304  1322.94304    90.00000    90.00000    90.00000  Step:        9000  Bead:      22 positions{angstrom}  cell{angstrom}
       E -3.41265e+01  3.83542e+00  2.97498e+01
       E  1.91357e+01 -1.27586e+00  6.02277e+01
       E  1.01870e+01 -5.02343e+01  1.57754e+01
3
# CELL(abcABC): 1322.94304  1322.94304  1322.94304    90.00000    90.00000    90.00000  Step:        9100  Bead:      22 positions{angstrom}  cell{angstrom}
       E -2.58804e+01  3.08773e+01 -6.94547e+00
       E  1.98474e+01 -2.04521e+01  5.66505e+01
       E  4.67853e+00 -1.71142e+01 -1.33551e+01
3
# CELL(abcABC): 1322.94304  1322.94304  1322.94304    90.00000    90.00000    90.00000  Step:        9200  Bead:      22 positions{angstrom}  cell{angstrom}
       E -4.18466e+00 -2.97660e+00 -1.97553e+01
       E -5.66356e+00  7.56021e+00  3.18374e+01
       E  4.60469e+01 -6.08260e+01  1.28545e+01
3
# CELL(abcABC): 1322.94304  1322.94304  1322.94304    90.00000    90.00000    90.00000  Step:        9300  Bead:      22 positions{angstrom}  cell{angstrom}
       E  1.76875e+01 -1.36488e+01 -2.93662e+01
       E -6.14289e+01 -2.92994e+01  2.46421e+01
       E  4.97451e+00 -3.29704e+01 -2.67169e+01
3
# CELL(abcABC): 1322.94304  1322.94304  1322.94304    90.00000    90.00000    90.00000  Step:        9400  Bead:      22 positions{angstrom}  cell{angstrom}
       E  1.38708e+01  1.83709e+01 -5.34520e+01
       E -2.95531e+01  7.38520e+00  6.64720e+01
       E  2.50329e+00 -1.59463e+01  5.12193e-01
3
# CELL(abcABC): 1322.94304  1322.94304  1322.94304    90.00000    90.00000    90.00000  Step:        9500  Bead:      22 positions{angstrom}  cell{angstrom}
       E  9.28821e+00  4.31379e+01 -3.34554e+01
       E  1.05334e+01 -5.06986e+01  4.85399e+01
       E  2.35845e+01 -5.58781e+01  1.43149e+01
3
# CELL(abcABC): 1322.94304  1322.94304  1322.94304    90.00000    90.00000    90.00000  Step:        9600  Bead:      22 positions{angstrom}  cell{angstrom}
       E  1.26569e+01  2.11937e+01 -4.39712e+01
       E  3.68999e+01 -8.01750e+01  1.04542e+01
       E  6.78254e+00 -3.86224e+00  4.87992e+00
3
# CELL(abcABC): 1322.94304  1322.94304  1322.94304    90.00000    90.00000    90.00000  Step:        9700  Bead:      22 positions{angstrom}  cell{angstrom}
       E -3.32733e+00 -4.75508e+01 -4.67221e+01
       E  2.66884e+01 -7.32519e+01  5.66730e+00
       E  2.04317e+01  9.15175e+00  2.77404e+00
3
# CELL(abcABC): 1322.94304  1322.94304  1322.94304    90.00000    90.00000    90.00000  Step:        9800  Bead:      22 positions{angstrom}  cell{angstrom}
       E -2.42423e+01 -5.18913e+01 -3.97758e+01
       E  1.59383e+01 -4.45259e+01  5.22239e+00
       E -2.35013e+01 -2.05688e+01  6.23961e+00
3