3
# CELL(abcABC): 1322.94304  1322.94304  1322.94304    90.00000    90.00000    90.00000  Step:           0  Bead:       7 positions{angstrom}  cell{angstrom}
       E  0.00000e+00  0.00000e+00  0.00000e+00
       E  0.00000e+00  0.00000e+00  0.00000e+00
       E  0.00000e+00  0.00000e+00  0.00000e+00
3
# CELL(abcABC): 1322.94304  1322.94304  1322.94304    90.00000    90.00000    90.00000  Step:         100  Bead:       7 positions{angstrom}  cell{angstrom}
       E -2.51458e+01 -1.46762e+01 -3.04773e+00
       E -9.36252e+00  2.56058e+00 -8.07730e+00
       E -2.15011e+01  2.32242e+00 -1.56292e+01
3
# CELL(abcABC): 1322.94304  1322.94304  1322.94304    90.00000    90.00000    90.00000  Step:         200  Bead:       7 positions{angstrom}  cell{angstrom}
       E -1.30381e+01 -2.70655e+01 -4.87881e+01
       E  1.32394e+01  1.70501e+01 -5.09931e+01
       E -3.77162e+01  7.50325e+00 -8.62483e+00
3
# CELL(abcABC): 1322.94304  1322.94304  1322.94304    90.00000    90.00000    90.00000  Step:         300  Bead:       7 positions{angstrom}  cell{angstrom}
       E -7.14949e+00 -2.98581e+01 -3.30460e+01
       E -1.51560e+01  8.32016e+00 -3.48752e+01
       E -1.57013e+01  1.25770e+01  1.66517e+01
3
# CELL(abcABC): 1322.94304  1322.94304  1322.94304    90.00000    90.00000    90.00000  Step:         400  Bead:       7 positions{angstrom}  cell{angstrom}
       E  8.07348e+00  3.08536e+01  3.77591e+00
       E -5.32151e+00  1.33092e+01 -1.51877e+01
       E  2.96583e-01  3.00244e+01  2.89804e+01
3
# CELL(abcABC): 1322.94304  1322.94304  1322.94304    90.00000    90.00000    90.00000  Step:         500  Bead:       7 positions{angstrom}  cell{angstrom}
       E -4.63374e+00  1.49020e+01 -2.47342e+01
       E -4.05608e+00 -1.16382e+01  1.72457e+01
       E -2.00024e+01  1.27264e+01  1.77534e+01
3
# CELL(abcABC): 1322.94304  1322.94304  1322.94304    90.00000    90.00000    90.00000  Step:         600  Bead:       7 positions{angstrom}  cell{angstrom}
       E -2.84564e+01  3.40740e+01 -3.71228e+01
       E -2.18424e+01 -1.34830e+01  3.99995e+01
       E -6.04353e+00 -1.47318e+01  8.94352e+00
3
# CELL(abcABC): 1322.94304  1322.94304  1322.94304    90.00000    90.00000    90.00000  Step:         700  Bead:       7 positions{angstrom}  cell{angstrom}
       E  1.94577e+01  2.50953e+01 -5.04298e+01
       E -8.96714e+00  3.30854e+01  2.97033e+01
       E -6.94676e+00 -1.88955e+01  2.97534e+01
3
# CELL(abcABC): 1322.94304  1322.94304  1322.94304    90.00000    90.00000    90.00000  Step:         800  Bead:       7 positions{angstrom}  cell{angstrom}
       E -4.52979e+01  2.26055e+01 -2.92685e+01
       E  3.55081e+01  6.91758e+01 -9.51829e+00
       E -7.60457e+01  2.35011e+01  7.73734e+01
3
# CELL(abcABC): 1322.94304  1322.94304  1322.94304    90.00000    90.00000    90.00000  Step:         900  Bead:       7 positions{angstrom}  cell{angstrom}
       E  1.92443e-02 -2.96478e+01 -3.67758e-01
       E -1.37725e+00  6.23272e+00 -2.45790e+01
       E -3.57013e+01  2.37754e+01  7.65447e+01
3
# CELL(abcABC): 1322.94304  1322.94304  1322.94304    90.00000    90.00000    90.00000  Step:        1000  Bead:       7 positions{angstrom}  cell{angstrom}
       E -3.56738e+00  2.22084e+01 -5.72386e+00
       E  6.55472e+00 -1.05638e+00 -4.25340e+01
       E -1.24670e+01 -8.78038e+00  5.57464e+01
3
# CELL(abcABC): 1322.94304  1322.94304  1322.94304    90.00000    90.00000    90.00000  Step:        1100  Bead:       7 positions{angstrom}  cell{angstrom}
       E  1.04029e+01  1.14239e+01 -4.55499e+01
       E  5.72187e+01 -2.24698e+01 -5.89623e+01
       E -2.35147e+01  1.49535e+01  1.86340e+01
3
# CELL(abcABC): 1322.94304  1322.94304  1322.94304    90.00000    90.00000    90.00000  Step:        1200  Bead:       7 positions{angstrom}  cell{angstrom}
       E  1.43300e+01 -1.02116e+00 -6.50031e+01
       E  1.69235e+01 -1.73590e+01 -7.20561e+01
       E -4.99901e+01  3.59803e+01  2.25166e+01
3
# CELL(abcABC): 1322.94304  1322.94304  1322.94304    90.00000    90.00000    90.00000  Step:        1300  Bead:       7 positions{angstrom}  cell{angstrom}
       E -7.55940e+00 -9.10613e+00 -7.37439e+01
       E  1.65279e+01 -4.65704e+01 -4.74295e+01
       E -3.87592e+01  4.88728e+01  2.27675e+01
3
# CELL(abcABC): 1322.94304  1322.94304  1322.94304    90.00000    90.00000    90.00000  Step:        1400  Bead:       7 positions{angstrom}  cell{angstrom}
       E -4.46699e+01 -6.00859e+00 -7.48151e+01
       E  1.15954e+01 -2.37075e+01 -2.25322e+01
       E -6.51284e+01  3.80524e+01  1.43357e+01
3
# CELL(abcABC): 1322.94304  1322.94304  1322.94304    90.00000    90.00000    90.00000  Step:        1500  Bead:       7 positions{angstrom}  cell{angstrom}
       E -3.75681e+01  1.55725e+01 -7.26933e+01
       E  2.06539e+00 -3.21785e+00  6.90149e+00
       E -6.06467e+01  3.45358e+01  1.44175e+00
3
# CELL(abcABC): 1322.94304  1322.94304  1322.94304    90.00000    90.00000    90.00000  Step:        1600  Bead:       7 positions{angstrom}  cell{angstrom}
       E -1.75763e+01  4.01867e+01 -4.12998e+01
       E  2.03780e+00  2.10837e+01  2.81676e+00
       E -6.22293e+01  4.29957e+01 -1.48773e+01
3
# CELL(abcABC): 1322.94304  1322.94304  1322.94304    90.00000    90.00000    90.00000  Step:        1700  Bead:       7 positions{angstrom}  cell{angstrom}
       E  5.14772e+00  1.41273e+01 -5.58819e+00
       E  1.01737e+01  4.07904e+01  2.81828e+01
       E -2.95404e+01  6.22183e+01  1.42440e+00
3
# CELL(abcABC): 1322.94304  1322.94304  1322.94304    90.00000    90.00000    90.00000  Step:        1800  Bead:       7 positions{angstrom}  cell{angstrom}
       E -1.07631e+01  1.10458e+01 -6.94433e+00
       E  7.08623e+00  6.07000e+01  1.94683e+01
       E -5.49654e+01  6.42602e+01  7.10784e+01
3
# CELL(abcABC): 1322.94304  1322.94304  1322.94304    90.00000    90.00000    90.00000  Step:        1900  Bead:       7 positions{angstrom}  cell{angstrom}
       E -1.73253e+01  2.56355e+01  1.88197e+01
       E -8.14468e+01  2.30681e+01  4.09082e+01
       E -8.23940e+01  5.34605e+01  3.34775e+01
3
# CELL(abcABC): 1322.94304  1322.94304  1322.94304    90.00000    90.00000    90.00000  Step:        2000  Bead:       7 positions{angstrom}  cell{angstrom}
       E  6.93614e+00  4.34972e+00  5.64728e+01
       E -6.62846e+01  2.65911e+01  5.44885e+01
       E -7.90604e+01  3.54672e+01 -3.95521e+00
3
# CELL(abcABC): 1322.94304  1322.94304  1322.94304    90.00000    90.00000    90.00000  Step:        2100  Bead:       7 positions{angstrom}  cell{angstrom}
       E -1.17588e+01 -1.94757e+01  5.36875e+01
       E -4.15701e+01  3.88754e+01  1.98531e+01
       E -6.46309e+01  3.10192e+01  8.74258e-01
3
# CELL(abcABC): 1322.94304  1322.94304  1322.94304    90.00000    90.00000    90.00000  Step:        2200  Bead:       7 positions{angstrom}  cell{angstrom}
       E -1.46710e+01 -5.25704e+01  4.86922e+01
       E -2.74200e+01 -2.03090e+01 -2.99479e+01
       E -4.09201e+01  6.86963e+01  1.69837e+01
3
# CELL(abcABC): 1322.94304  1322.94304  1322.94304    90.00000    90.00000    90.00000  Step:        2300  Bead:       7 positions{angstrom}  cell{angstrom}
       E -1.39103e+01 -9.00801e+01  5.92621e+01
       E -2.38727e+01 -8.79312e+00 -1.97100e+01
       E -3.29048e+01  7.26249e+01  2.79062e+01
3
# CELL(abcABC): 1322.94304  1322.94304  1322.94304    90.00000    90.00000    90.00000  Step:        2400  Bead:       7 positions{angstrom}  cell{angstrom}
       E -1.86578e+01 -6.37293e+01  2.85139e+01
       E  1.09182e+01 -1.36330e+01 -9.98149e+00
       E -3.72738e+01  4.23638e+01  3.66627e+01
3
# CELL(abcABC): 1322.94304  1322.94304  1322.94304    90.00000    90.00000    90.00000  Step:        2500  Bead:       7 positions{angstrom}  cell{angstrom}
       E -1.56415e+01 -3.82531e+01  6.25638e+01
       E -1.63492e+01 -1.87421e+01 -4.78144e+01
       E -1.21062e+01  1.76678e+01  5.03361e+01
3
# CELL(abcABC): 1322.94304  1322.94304  1322.94304    90.00000    90.00000    90.00000  Step:        2600  Bead:       7 positions{angstrom}  cell{angstrom}
       E  3.45774e+00 -6.08339e+01  8.07221e+01
       E -4.77633e+01 -3.48149e+01 -6.17880e+01
       E -2.23895e+01 -2.30001e+01  4.26818e+01
3
# CELL(abcABC): 1322.94304  1322.94304  1322.94304    90.00000    90.00000    90.00000  Step:        2700  Bead:       7 positions{angstrom}  cell{angstrom}
       E  1.06766e+01 -4.17607e+01  9.55492e+01
       E -5.02896e+01 -3.62824e+01 -2.95533e+01
       E -1.73385e+01 -1.56101e+01  1.08308e+01
3
# CELL(abcABC): 1322.94304  1322.94304  1322.94304    90.00000    90.00000    90.00000  Step:        2800  Bead:       7 positions{angstrom}  cell{angstrom}
       E -5.56191e+01 -4.97771e+01  1.08969e+01
       E -8.92145e+00 -5.16347e+01 -2.10100e+01
       E -9.74256e+00 -2.08367e+01  2.94549e+01
3
# CELL(abcABC): 1322.94304  1322.94304  1322.94304    90.00000    90.00000    90.00000  Step:        2900  Bead:       7 positions{angstrom}  cell{angstrom}
       E -4.59923e+01 -6.80746e+01 -1.39949e+01
       E -1.29333e+01 -3.06640e+01 -1.57369e+01
       E  2.67768e+01  9.67305e+00  2.24658e+01
3
# CELL(abcABC): 1322.94304  1322.94304  1322.94304    90.00000    90.00000    90.00000  Step:        3000  Bead:       7 positions{angstrom}  cell{angstrom}
       E -4.11949e+01 -4.56793e+01 -2.50161e+01
       E -1.88805e-01 -4.76111e+01  2.94257e+01
       E  1.29144e+01  2.61529e+01 -1.11962e+01
3
# CELL(abcABC): 1322.94304  1322.94304  1322.94304    90.00000    90.00000    90.00000  Step:        3100  Bead:       7 positions{angstrom}  cell{angstrom}
       E -3.21512e+01 -5.65750e+01  1.00952e+01
       E  1.37460e+01 -7.50911e+01  6.70341e+01
       E -1.52738e+01  3.49266e+01  4.63429e+00
3
# CELL(abcABC): 1322.94304  1322.94304  1322.94304    90.00000    90.00000    90.00000  Step:        3200  Bead:       7 positions{angstrom}  cell{angstrom}
       E -5.77075e+01 -2.97567e+00  6.01838e+01
       E -3.69252e+01 -5.91542e+01  4.70895e+01
       E -4.81736e+00  2.86308e+01  9.49758e+00
3
# CELL(abcABC): 1322.94304  1322.94304  1322.94304    90.00000    90.00000    90.00000  Step:        3300  Bead:       7 positions{angstrom}  cell{angstrom}
       E -5.25128e+01 -4.69397e+01  3.98173e+01
       E -8.46797e+00 -1.76069e+01  4.89045e+01
       E -1.17507e+01  2.36793e+01  4.58747e+01
3
# CELL(abcABC): 1322.94304  1322.94304  1322.94304    90.00000    90.00000    90.00000  Step:        3400  Bead:       7 positions{angstrom}  cell{angstrom}
       E -7.67412e+01 -1.17561e+01  1.87836e+01
       E -2.53937e+01 -3.67834e+01  4.33566e+01
       E -5.56570e+01  3.85628e+01  6.53436e+01
3
# CELL(abcABC): 1322.94304  1322.94304  1322.94304    90.00000    90.00000    90.00000  Step:        3500  Bead:       7 positions{angstrom}  cell{angstrom}
       E -7.57353e+01 -1.56399e+01  2.59478e+01
       E  2.59687e+01 -5.47469e+01  2.56721e+01
       E -4.13817e+01  6.37517e+01  5.94715e+01
3
# CELL(abcABC): 1322.94304  1322.94304  1322.94304    90.00000    90.00000    90.00000  Step:        3600  Bead:       7 positions{angstrom}  cell{angstrom}
       E -6.65716e+01 -3.25423e+01  2.48776e+01
       E  3.87824e+01 -1.57132e+01  6.73329e+00
       E -8.09522e+01  3.41926e+01  2.18917e+01
3
# CELL(abcABC): 1322.94304  1322.94304  1322.94304    90.00000    90.00000    90.00000  Step:        3700  Bead:       7 positions{angstrom}  cell{angstrom}
       E -9.11716e+01 -2.84702e+01 -2.25991e+01
       E  1.37249e+01 -1.99012e+00  1.54959e+01
       E -5.45494e+01  1.86505e+01 -2.69635e+01
3
# CELL(abcABC): 1322.94304  1322.94304  1322.94304    90.00000    90.00000    90.00000  Step:        3800  Bead:       7 positions{angstrom}  cell{angstrom}
       E -7.59967e+01 -2.96779e+01 -3.88095e+01
       E -2.28300e+01 -3.38890e+01 -3.09255e+01
       E -4.01040e+01 -2.75249e-01  7.74991e+00
3
# CELL(abcABC): 1322.94304  1322.94304  1322.94304    90.00000    90.00000    90.00000  Step:        3900  Bead:       7 positions{angstrom}  cell{angstrom}
       E -4.99030e+01 -1.10081e+01 -2.33263e+01
       E -4.04639e+01 -2.91782e+01 -3.66147e+01
       E -1.13907e+01  3.40055e+00  1.12563e+01
3
# CELL(abcABC): 1322.94304  1322.94304  1322.94304    90.00000    90.00000    90.00000  Step:        4000  Bead:       7 positions{angstrom}  cell{angstrom}
       E -7.88340e+01  2.26324e-01 -3.29278e+01
       E -5.81755e+01 -8.53937e+00  2.15738e+00
       E -2.91463e+01  1.82684e+01  8.86838e+00
3
# CELL(abcABC): 1322.94304  1322.94304  1322.94304    90.00000    90.00000    90.00000  Step:        4100  Bead:       7 positions{angstrom}  cell{angstrom}
       E -7.66574e+01  5.61314e+01 -5.95273e+01
       E -2.06279e+01  5.62402e+00  3.80742e+01
       E -5.29814e+01  6.09260e+01  5.71330e+01
3
# CELL(abcABC): 1322.94304  1322.94304  1322.94304    90.00000    90.00000    90.00000  Step:        4200  Bead:       7 positions{angstrom}  cell{angstrom}
       E -1.54699e+01  3.96849e+01 -2.33450e+01
       E -7.51816e+01  3.14099e+01  2.67929e+01
       E -4.11491e+01  3.86561e+01  3.78630e+01
3
# CELL(abcABC): 1322.94304  1322.94304  1322.94304    90.00000    90.00000    90.00000  Step:        4300  Bead:       7 positions{angstrom}  cell{angstrom}
       E -8.84498e+00 -6.44879e+00 -4.07753e+01
       E -7.62733e+01  1.98962e+01  2.41151e+01
       E -5.48016e+01  1.80775e+01  2.00831e+01
3
# CELL(abcABC): 1322.94304  1322.94304  1322.94304    90.00000    90.00000    90.00000  Step:        4400  Bead:       7 positions{angstrom}  cell{angstrom}
       E -3.29166e+01 -1.29366e+00 -1.46834e+01
       E -7.91423e+01  6.04410e+01 -1.74437e+00
       E -4.35198e+01  1.02863e+01 -1.67783e+01
3
# CELL(abcABC): 1322.94304  1322.94304  1322.94304    90.00000    90.00000    90.00000  Step:        4500  Bead:       7 positions{angstrom}  cell{angstrom}
       E -3.68210e+01  2.09346e+01 -1.29440e+01
       E -6.80970e+01  4.98218e+01 -3.33196e+01
       E -4.10299e+01  8.33061e-01  2.21321e+01
3
# CELL(abcABC): 1322.94304  1322.94304  1322.94304    90.00000    90.00000    90.00000  Step:        4600  Bead:       7 positions{angstrom}  cell{angstrom}
       E  2.93023e+01  5.97998e+01 -3.16821e+01
       E -6.61833e+01  7.38712e+00 -5.02852e+01
       E -7.34838e+00  2.40431e+01  2.85109e+01
3
# CELL(abcABC): 1322.94304  1322.94304  1322.94304    90.00000    90.00000    90.00000  Step:        4700  Bead:       7 positions{angstrom}  cell{angstrom}
       E  2.47634e+01  6.28466e+01 -3.72598e+01
       E -4.97042e+01  4.23819e+01 -6.29829e+01
       E  1.07858e+01  3.26641e+01 -1.07732e+01
3
# CELL(abcABC): 1322.94304  1322.94304  1322.94304    90.00000    90.00000    90.00000  Step:        4800  Bead:       7 positions{angstrom}  cell{angstrom}
       E  2.55449e+01  3.11008e+01  2.00602e+01
       E -3.78417e+01  3.94916e+01 -3.76122e+01
       E  1.77817e+01  4.10981e+01 -3.88068e+01
3
# CELL(abcABC): 1322.94304  1322.94304  1322.94304    90.00000    90.00000    90.00000  Step:        4900  Bead:       7 positions{angstrom}  cell{angstrom}
       E  1.18009e+01  1.09377e+01 -2.44300e+00
       E -7.18228e+01  3.92541e+00 -4.83220e+01
       E -2.17437e+01  8.75496e+00 -6.34734e+01
3
# CELL(abcABC): 1322.94304  1322.94304  1322.94304    90.00000    90.00000    90.00000  Step:        5000  Bead:       7 positions{angstrom}  cell{angstrom}
       E  1.42591e+01  6.53975e+00  3.67744e+01
       E -2.23145e+01  8.03261e-01 -3.26021e+01
       E  4.91711e+00 -7.93375e+00 -6.57152e+01
3
# CELL(abcABC): 1322.94304  1322.94304  1322.94304    90.00000    90.00000    90.00000  Step:        5100  Bead:       7 positions{angstrom}  cell{angstrom}
       E -8.93395e+00 -3.01885e+01  1.97453e+01
       E -2.40120e+01  1.10874e+00 -3.39285e+01
       E -7.96943e+00  1.31547e+01 -1.96692e+01
3
# CELL(abcABC): 1322.94304  1322.94304  1322.94304    90.00000    90.00000    90.00000  Step:        5200  Bead:       7 positions{angstrom}  cell{angstrom}
       E -2.99929e+00 -1.15000e+00  2.85017e+01
       E -2.03204e+01  4.55303e+01  4.95924e+00
       E -6.26483e+00  1.37348e+01 -2.39415e+00
3
# CELL(abcABC): 1322.94304  1322.94304  1322.94304    90.00000    90.00000    90.00000  Step:        5300  Bead:       7 positions{angstrom}  cell{angstrom}
       E -1.16187e+01  3.31431e+01  5.76766e+01
       E -4.90406e+00  5.20938e+01 -3.41634e+01
       E  3.18848e+01  3.40429e+01  2.77195e+01
3
# CELL(abcABC): 1322.94304  1322.94304  1322.94304    90.00000    90.00000    90.00000  Step:        5400  Bead:       7 positions{angstrom}  cell{angstrom}
       E  6.37627e+00  2.06964e+01  6.44737e+01
       E -2.83231e+01  2.04627e+01 -5.32104e+01
       E -2.28813e+00  5.07077e+00  3.19956e+01
3
# CELL(abcABC): 1322.94304  1322.94304  1322.94304    90.00000    90.00000    90.00000  Step:        5500  Bead:       7 positions{angstrom}  cell{angstrom}
       E -1.14584e+01  3.19370e+01  6.33855e+01
       E -3.91629e+01  1.78293e+01 -4.03432e+01
       E -9.00292e+00  5.56169e+00  3.20718e+01
3
# CELL(abcABC): 1322.94304  1322.94304  1322.94304    90.00000    90.00000    90.00000  Step:        5600  Bead:       7 positions{angstrom}  cell{angstrom}
       E -3.08851e+00  1.47916e+01  3.38054e+01
       E -1.91857e+01  3.28275e+01 -1.36399e+01
       E -2.76362e+01  1.64792e+01  3.85532e+01
3
# CELL(abcABC): 1322.94304  1322.94304  1322.94304    90.00000    90.00000    90.00000  Step:        5700  Bead:       7 positions{angstrom}  cell{angstrom}
       E -4.25201e+01  1.76238e+01  1.37763e+00
       E  1.63591e+01  3.42237e+01 -1.45830e+01
       E -4.21297e+01  3.14958e+01  8.16823e+00
3
# CELL(abcABC): 1322.94304  1322.94304  1322.94304    90.00000    90.00000    90.00000  Step:        5800  Bead:       7 positions{angstrom}  cell{angstrom}
       E -3.04047e+01 -2.52134e+00 -1.16268e+01
       E -1.59937e+01  9.06641e+00 -1.44683e+01
       E -6.22400e+00  2.45229e+01  1.44176e+01
3
# CELL(abcABC): 1322.94304  1322.94304  1322.94304    90.00000    90.00000    90.00000  Step:        5900  Bead:       7 positions{angstrom}  cell{angstrom}
       E -3.83618e+00 -4.29858e+01  1.01943e+01
       E -3.76491e+01  2.20948e+01 -3.63035e+01
       E  2.88036e-01  2.03277e+01  2.14132e+00
3
# CELL(abcABC): 1322.94304  1322.94304  1322.94304    90.00000    90.00000    90.00000  Step:        6000  Bead:       7 positions{angstrom}  cell{angstrom}
       E  2.73409e+01 -6.11451e+01 -4.84663e+00
       E -4.13559e+01 -6.73855e+00 -1.23316e+01
       E  2.62686e+01  1.58452e+01 -1.03637e+01
3
# CELL(abcABC): 1322.94304  1322.94304  1322.94304    90.00000    90.00000    90.00000  Step:        6100  Bead:       7 positions{angstrom}  cell{angstrom}
       E  4.31141e+01 -5.98781e+01 -2.54028e+01
       E  1.62233e+01  2.10510e+01  3.43143e+01
       E  3.66348e+01  1.16081e+01 -4.85246e+01
3
# CELL(abcABC): 1322.94304  1322.94304  1322.94304    90.00000    90.00000    90.00000  Step:        6200  Bead:       7 positions{angstrom}  cell{angstrom}
       E  3.29639e+01 -6.72056e+01 -6.35953e+01
       E  4.87699e+01 -9.11824e+00  5.10879e+00
       E  4.85777e+01  1.97421e+01 -4.19792e+01
3
# CELL(abcABC): 1322.94304  1322.94304  1322.94304    90.00000    90.00000    90.00000  Step:        6300  Bead:       7 positions{angstrom}  cell{angstrom}
       E  3.31490e+01 -5.55535e+01 -3.31966e+01
       E  6.29283e+01 -4.87857e+01  3.89108e+00
       E  5.63636e+01  2.91455e+00 -4.44364e+01
3
# CELL(abcABC): 1322.94304  1322.94304  1322.94304    90.00000    90.00000    90.00000  Step:        6400  Bead:       7 positions{angstrom}  cell{angstrom}
       E -4.64425e+00 -6.49032e+01 -7.27719e+01
       E  7.04594e+01 -5.28383e+01 -4.40630e+01
       E  3.37096e+01 -1.98887e+01 -2.31541e+00
3
# CELL(abcABC): 1322.94304  1322.94304  1322.94304    90.00000    90.00000    90.00000  Step:        6500  Bead:       7 positions{angstrom}  cell{angstrom}
       E -2.87351e+01 -1.05262e+02 -8.38593e+01
       E  4.38027e+01 -5.33828e+01 -1.66164e+01
       E  3.35942e+01 -2.57634e+01  2.88603e+00
3
# CELL(abcABC): 1322.94304  1322.94304  1322.94304    90.00000    90.00000    90.00000  Step:        6600  Bead:       7 positions{angstrom}  cell{angstrom}
       E -1.73280e+01 -9.72135e+01 -1.26208e+02
       E -9.79315e+00 -4.20955e+01 -9.86169e+00
       E  3.35129e+01  3.67523e+00  4.15440e+00
3
# CELL(abcABC): 1322.94304  1322.94304  1322.94304    90.00000    90.00000    90.00000  Step:        6700  Bead:       7 positions{angstrom}  cell{angstrom}
       E -7.79728e+00 -6.24303e+01 -1.11895e+02
       E  2.59957e+01 -6.57206e+01  2.46063e+00
       E  1.64936e+01  1.94968e+01 -1.45912e+01
3
# CELL(abcABC): 1322.94304  1322.94304  1322.94304    90.00000    90.00000    90.00000  Step:        6800  Bead:       7 positions{angstrom}  cell{angstrom}
       E -3.54215e+00 -8.14776e+01 -5.94755e+01
       E  9.47303e+00 -2.19839e+01  1.64939e+01
       E  1.87363e+01  5.80888e+01 -3.27060e+01
3
# CELL(abcABC): 1322.94304  1322.94304  1322.94304    90.00000    90.00000    90.00000  Step:        6900  Bead:       7 positions{angstrom}  cell{angstrom}
       E -1.36530e+01 -3.87239e+01 -6.21289e+01
       E  1.59103e+01 -4.63023e+01 -8.49226e+00
       E -5.09550e+00  4.59895e+01 -1.58211e+01
3
# CELL(abcABC): 1322.94304  1322.94304  1322.94304    90.00000    90.00000    90.00000  Step:        7000  Bead:       7 positions{angstrom}  cell{angstrom}
       E -5.60233e+01 -4.98571e+01 -4.77336e+01
       E -6.52207e+00 -1.64777e+01  2.94749e+00
       E  3.52685e+01  5.29054e+01  1.51503e+01
3
# CELL(abcABC): 1322.94304  1322.94304  1322.94304    90.00000    90.00000    90.00000  Step:        7100  Bead:       7 positions{angstrom}  cell{angstrom}
       E -2.35745e+01 -4.24810e+01 -8.64509e+00
       E  7.47365e+00 -1.23005e+01  4.78911e+01
       E -1.07580e+01  4.72146e+01  4.65264e+01
3
# CELL(abcABC): 1322.94304  1322.94304  1322.94304    90.00000    90.00000    90.00000  Step:        7200  Bead:       7 positions{angstrom}  cell{angstrom}
       E -2.68365e+01 -2.39871e+01 -2.20027e+01
       E -3.52114e+00  8.00862e+00  3.78837e+01
       E  2.47440e+01  5.97114e+01  1.62198e+01
3
# CELL(abcABC): 1322.94304  1322.94304  1322.94304    90.00000    90.00000    90.00000  Step:        7300  Bead:       7 positions{angstrom}  cell{angstrom}
       E -3.75900e-01 -2.62868e+01 -8.24320e+00
       E  1.83889e+01  2.73829e+01  2.33858e+01
       E  5.90232e+01  4.77324e+01 -1.27308e+01
3
# CELL(abcABC): 1322.94304  1322.94304  1322.94304    90.00000    90.00000    90.00000  Step:        7400  Bead:       7 positions{angstrom}  cell{angstrom}
       E -1.00662e+01 -6.14150e+01 -5.21089e+00
       E  4.80953e+01  1.12593e+01  3.82435e+01
       E  8.10948e+01  9.45027e+01 -1.08231e+01
3
# CELL(abcABC): 1322.94304  1322.94304  1322.94304    90.00000    90.00000    90.00000  Step:        7500  Bead:       7 positions{angstrom}  cell{angstrom}
       E -2.64674e+01 -4.42905e+01 -2.71962e+01
       E  1.47000e+01  8.92819e+00 -9.85472e+00
       E  4.13499e+01  7.18215e+01 -2.42213e+01
3
# CELL(abcABC): 1322.94304  1322.94304  1322.94304    90.00000    90.00000    90.00000  Step:        7600  Bead:       7 positions{angstrom}  cell{angstrom}
       E -5.73338e+00 -7.29968e+01 -5.13662e+00
       E  1.62747e+00 -5.99443e+01 -4.06269e+01
       E  4.32457e+01  1.45338e+01  1.08485e+01
3
# CELL(abcABC): 1322.94304  1322.94304  1322.94304    90.00000    90.00000    90.00000  Step:        7700  Bead:       7 positions{angstrom}  cell{angstrom}
       E  1.20387e+01  6.35787e+00 -2.38396e+01
       E -2.27703e+01 -4.48648e+01 -5.00047e+01
       E  7.45653e+00 -2.84769e+00 -2.14164e+01
3
# CELL(abcABC): 1322.94304  1322.94304  1322.94304    90.00000    90.00000    90.00000  Step:        7800  Bead:       7 positions{angstrom}  cell{angstrom}
       E  4.97814e+01 -1.28767e+01 -5.36086e+01
       E  3.29843e+01 -2.53434e+01 -4.58862e+01
       E  2.25704e+01 -2.41218e+01 -7.61162e+01
3
# CELL(abcABC): 1322.94304  1322.94304  1322.94304    90.00000    90.00000    90.00000  Step:        7900  Bead:       7 positions{angstrom}  cell{angstrom}
       E  3.19577e+01 -3.81597e+01 -4.74237e+01
       E  4.07310e+01 -4.83162e+01 -2.61652e+01
       E  1.81567e+01  1.73017e+01 -5.25665e+01
3
# CELL(abcABC): 1322.94304  1322.94304  1322.94304    90.00000    90.00000    90.00000  Step:        8000  Bead:       7 positions{angstrom}  cell{angstrom}
       E  2.35783e+01  1.15438e+01 -1.55328e+01
       E  5.77966e+01 -1.29599e+01 -4.11298e+01
       E -3.92586e+01  5.05695e+01 -9.22673e+00
3
# CELL(abcABC): 1322.94304  1322.94304  1322.94304    90.00000    90.00000    90.00000  Step:        8100  Bead:       7 positions{angstrom}  cell{angstrom}
       E  3.38538e+01 -6.69846e+00 -3.00067e+01
       E  1.59201e+01  3.71084e-01 -9.00378e-01
       E -2.30085e+01 -4.30016e+00  1.43616e+01
3
# CELL(abcABC): 1322.94304  1322.94304  1322.94304    90.00000    90.00000    90.00000  Step:        8200  Bead:       7 positions{angstrom}  cell{angstrom}
       E  2.83399e+01  2.86045e+01 -6.45291e+01
       E  2.06255e+01  6.58617e+00  4.05672e+01
       E  1.36074e+01 -1.54012e+01  2.81856e+01
3
# CELL(abcABC): 1322.94304  1322.94304  1322.94304    90.00000    90.00000    90.00000  Step:        8300  Bead:       7 positions{angstrom}  cell{angstrom}
       E  4.48670e+01 -2.11202e-01 -7.68802e+01
       E  2.56211e+01  2.27345e+01  5.00874e+01
       E  4.75461e+00 -3.80382e+01  1.61005e+01
3
# CELL(abcABC): 1322.94304  1322.94304  1322.94304    90.00000    90.00000    90.00000  Step:        8400  Bead:       7 positions{angstrom}  cell{angstrom}
       E  2.45402e+01  3.40035e+01 -5.74138e+01
       E  1.17035e+01  1.54214e+01  1.94963e+01
       E  4.49543e+01  3.53235e+00  3.42917e+01
3
# CELL(abcABC): 1322.94304  1322.94304  1322.94304    90.00000    90.00000    90.00000  Step:        8500  Bead:       7 positions{angstrom}  cell{angstrom}
       E -4.22794e+01  1.35933e+01 -1.51551e+01
       E  6.26757e+01  5.12042e+00  1.72161e+01
       E  4.83397e+01  6.40667e+00  4.17886e+01
3
# CELL(abcABC): 1322.94304  1322.94304  1322.94304    90.00000    90.00000    90.00000  Step:        8600  Bead:       7 positions{angstrom}  cell{angstrom}
       E -5.80788e+01  5.31549e+01 -3.26809e+01
       E  3.09073e+01  1.90582e+01 -3.02632e+01
       E  1.39636e+01 -3.54588e+01  2.86852e+01
3
# CELL(abcABC): 1322.94304  1322.94304  1322.94304    90.00000    90.00000    90.00000  Step:        8700  Bead:       7 positions{angstrom}  cell{angstrom}
       E  5.93187e+00  2.56642e+01 -2.25631e+01
       E  5.31924e+01  3.39910e+01 -5.50183e+00
       E  3.55022e+01 -4.07678e+01 -7.90909e+00
3
# CELL(abcABC): 1322.94304  1322.94304  1322.94304    90.00000    90.00000    90.00000  Step:        8800  Bead:       7 positions{angstrom}  cell{angstrom}
       E -3.07106e+00  2.71313e+01  1.68413e+01
       E  2.73228e+01  5.56718e+00  2.39507e+01
       E  3.61108e+01 -5.11884e+01  6.76821e+01
3
# CELL(abcABC): 1322.94304  1322.94304  1322.94304    90.00000    90.00000    90.00000  Step:        8900  Bead:       7 positions{angstrom}  cell{angstrom}
       E  1.36808e+01  1.70533e+01  9.54844e+00
       E -4.05821e+00 -5.86458e+01  3.33564e+01
       E  3.08253e+01 -6.62239e+01  3.76576e+01
3
# CELL(abcABC): 1322.94304  1322.94304  1322.94304    90.00000    90.00000    90.00000  Step:        9000  Bead:       7 positions{angstrom}  cell{angstrom}
       E -1.19502e+01  1.99029e+01  2.07399e+01
       E -2.10882e+01 -3.20664e+00  5.72250e+01
       E  2.70394e+01 -6.27383e+01 -3.56965e-02
3
# CELL(abcABC): 1322.94304  1322.94304  1322.94304    90.00000    90.00000    90.00000  Step:        9100  Bead:       7 positions{angstrom}  cell{angstrom}
       E -9.54761e+00  3.51249e+01  9.85654e+00
       E -3.80137e+01 -2.22562e+01  5.69612e+01
       E  1.31443e+01 -7.11260e+01  3.87657e+00
3
# CELL(abcABC): 1322.94304  1322.94304  1322.94304    90.00000    90.00000    90.00000  Step:        9200  Bead:       7 positions{angstrom}  cell{angstrom}
       E  2.97664e+01  3.48481e+01  1.13044e+01
       E  8.86582e+00  3.47039e+00  1.14488e+01
       E  1.15840e+01 -5.13907e+01  2.51747e+01
3
# CELL(abcABC): 1322.94304  1322.94304  1322.94304    90.00000    90.00000    90.00000  Step:        9300  Bead:       7 positions{angstrom}  cell{angstrom}
       E  1.16129e+01  4.53317e+01 -4.08638e+01
       E  6.46428e+00 -3.97507e+01  2.06552e+01
       E  1.91410e+01 -3.51685e+01 -1.19294e+01
3
# CELL(abcABC): 1322.94304  1322.94304  1322.94304    90.00000    90.00000    90.00000  Step:        9400  Bead:       7 positions{angstrom}  cell{angstrom}
       E  2.81322e+01  4.78433e+01 -6.64037e+01
       E -1.16213e+00 -4.36885e+01  2.73841e+01
       E  3.91823e+01 -5.23487e+01  1.02556e+01
3
# CELL(abcABC): 1322.94304  1322.94304  1322.94304    90.00000    90.00000    90.00000  Step:        9500  Bead:       7 positions{angstrom}  cell{angstrom}
       E  1.14461e+01  2.97268e+01 -2.79780e+01
       E  9.76419e+00 -4.70123e+01  3.14946e+00
       E  1.64479e+01 -3.13868e+01 -1.04090e+01
3
# CELL(abcABC): 1322.94304  1322.94304  1322.94304    90.00000    90.00000    90.00000  Step:        9600  Bead:       7 positions{angstrom}  cell{angstrom}
       E -2.57930e+01  1.13684e+01 -3.20463e+01
       E  6.02519e+01 -3.63474e+01  3.91842e+01
       E -6.14154e+00 -3.42956e+00  1.67214e+01
3
# CELL(abcABC): 1322.94304  1322.94304  1322.94304    90.00000    90.00000    90.00000  Step:        9700  Bead:       7 positions{angstrom}  cell{angstrom}
       E -5.92503e+00 -1.50831e+01 -8.71294e+01
       E  4.91626e+01 -6.09212e+01  1.77325e+01
       E  1.82376e+01 -4.93547e+01  2.29268e+01
3
# CELL(abcABC): 1322.94304  1322.94304  1322.94304    90.00000    90.00000    90.00000  Step:        9800  Bead:       7 positions{angstrom}  cell{angstrom}
       E -1.71713e+01 -5.77688e+01 -7.58934e+01
       E  3.68179e+01 -8.34520e+01 -7.85909e+00
       E -6.77638e+00 -3.09164e+01  2.00878e+01
3