3
# CELL(abcABC): 1322.94304  1322.94304  1322.94304    90.00000    90.00000    90.00000  Step:           0  Bead:      16 positions{angstrom}  cell{angstrom}
       E  0.00000e+00  0.00000e+00  0.00000e+00
       E  0.00000e+00  0.00000e+00  0.00000e+00
       E  0.00000e+00  0.00000e+00  0.00000e+00
3
# CELL(abcABC): 1322.94304  1322.94304  1322.94304    90.00000    90.00000    90.00000  Step:         100  Bead:      16 positions{angstrom}  cell{angstrom}
       E  1.80224e+01 -1.26952e+00  2.24787e+01
       E  1.15216e+01 -2.37315e+01  4.09288e+00
       E -1.58417e+01  1.03104e+01 -2.44765e+01
3
# CELL(abcABC): 1322.94304  1322.94304  1322.94304    90.00000    90.00000    90.00000  Step:         200  Bead:      16 positions{angstrom}  cell{angstrom}
       E  9.98376e+00  1.30602e+01  1.76415e+01
       E -6.32340e+00 -2.81406e+01 -1.24528e+01
       E  7.09503e-01  2.11478e+01 -3.09585e+01
3
# CELL(abcABC): 1322.94304  1322.94304  1322.94304    90.00000    90.00000    90.00000  Step:         300  Bead:      16 positions{angstrom}  cell{angstrom}
       E -2.38508e+01 -7.58213e-01  1.50067e+01
       E  1.03820e+01 -5.30598e+00 -1.82532e+01
       E -7.95368e+00  4.02874e+01 -1.74288e+01
3
# CELL(abcABC): 1322.94304  1322.94304  1322.94304    90.00000    90.00000    90.00000  Step:         400  Bead:      16 positions{angstrom}  cell{angstrom}
       E -1.28754e+01  3.45328e+01  9.40395e+00
       E  8.90946e+00  1.55522e+01 -1.82414e+01
       E -2.60688e+01  2.51394e+01  1.28499e+01
3
# CELL(abcABC): 1322.94304  1322.94304  1322.94304    90.00000    90.00000    90.00000  Step:         500  Bead:      16 positions{angstrom}  cell{angstrom}
       E -2.26621e+01  4.54707e+00  1.16335e+01
       E  3.19860e+01  1.84143e+01 -7.25737e+00
       E -5.31196e+00 -1.03716e+01  2.54870e+01
3
# CELL(abcABC): 1322.94304  1322.94304  1322.94304    90.00000    90.00000    90.00000  Step:         600  Bead:      16 positions{angstrom}  cell{angstrom}
       E -9.63899e+00 -2.91400e+01 -1.97983e+01
       E  1.61593e+01 -6.91288e-01  3.57062e+00
       E -6.10641e+00  2.44917e+00  1.53713e+01
3
# CELL(abcABC): 1322.94304  1322.94304  1322.94304    90.00000    90.00000    90.00000  Step:         700  Bead:      16 positions{angstrom}  cell{angstrom}
       E -1.03707e+01  4.57348e+00  9.01225e+00
       E  2.55200e+01  4.90986e+01  1.23418e+00
       E -3.81969e+01 -2.20147e+01  8.58319e+00
3
# CELL(abcABC): 1322.94304  1322.94304  1322.94304    90.00000    90.00000    90.00000  Step:         800  Bead:      16 positions{angstrom}  cell{angstrom}
       E  1.15518e+01  1.17174e+01  1.21470e+01
       E  1.44956e+01  4.25605e+01  1.24115e+01
       E -5.35964e+01 -2.45238e+01  5.67342e+01
3
# CELL(abcABC): 1322.94304  1322.94304  1322.94304    90.00000    90.00000    90.00000  Step:         900  Bead:      16 positions{angstrom}  cell{angstrom}
       E -1.63325e+01  3.20617e+01 -1.08527e+01
       E  2.31791e+01  3.49075e+01 -1.47427e+01
       E -4.08129e+01 -1.31983e+01  5.11820e+01
3
# CELL(abcABC): 1322.94304  1322.94304  1322.94304    90.00000    90.00000    90.00000  Step:        1000  Bead:      16 positions{angstrom}  cell{angstrom}
       E -1.23335e+01  4.83802e+00 -3.75532e+01
       E  1.95900e+01  1.08168e+00 -3.19334e+01
       E -3.81260e+01 -2.73773e+01  4.04291e+01
3
# CELL(abcABC): 1322.94304  1322.94304  1322.94304    90.00000    90.00000    90.00000  Step:        1100  Bead:      16 positions{angstrom}  cell{angstrom}
       E  1.79710e+01 -1.10621e+01 -4.25278e+01
       E -5.23138e+00  1.39459e+01 -2.63395e+01
       E -1.96575e+01  4.30520e+01  1.10002e+01
3
# CELL(abcABC): 1322.94304  1322.94304  1322.94304    90.00000    90.00000    90.00000  Step:        1200  Bead:      16 positions{angstrom}  cell{angstrom}
       E  8.74433e+00  4.92897e+00 -7.59734e+01
       E  7.40894e+00 -4.04467e+01  6.17877e-01
       E  7.12602e+00  4.05858e+01  2.45286e+01
3
# CELL(abcABC): 1322.94304  1322.94304  1322.94304    90.00000    90.00000    90.00000  Step:        1300  Bead:      16 positions{angstrom}  cell{angstrom}
       E -8.73373e+00  1.40990e+01 -8.30783e+01
       E  4.71195e+01 -1.41231e+01 -1.99515e+01
       E  2.06944e+00  9.73567e+00 -2.11581e+01
3
# CELL(abcABC): 1322.94304  1322.94304  1322.94304    90.00000    90.00000    90.00000  Step:        1400  Bead:      16 positions{angstrom}  cell{angstrom}
       E -1.29325e+01  3.15013e+01 -6.32231e+01
       E  2.00752e+00 -2.72382e+00 -2.13048e+01
       E  1.98316e+01 -6.43991e+00 -9.99081e+00
3
# CELL(abcABC): 1322.94304  1322.94304  1322.94304    90.00000    90.00000    90.00000  Step:        1500  Bead:      16 positions{angstrom}  cell{angstrom}
       E  6.93815e-01  6.43950e+00 -5.15233e+01
       E -2.93103e+01  3.91321e+01 -9.37802e+00
       E  1.43481e+00  4.28600e+00  1.83918e+00
3
# CELL(abcABC): 1322.94304  1322.94304  1322.94304    90.00000    90.00000    90.00000  Step:        1600  Bead:      16 positions{angstrom}  cell{angstrom}
       E -2.75033e+01  4.78093e+01 -4.68792e+01
       E  1.51105e+01  6.37516e+01 -9.51515e+00
       E -3.06400e+01  1.06588e+01  9.28118e+00
3
# CELL(abcABC): 1322.94304  1322.94304  1322.94304    90.00000    90.00000    90.00000  Step:        1700  Bead:      16 positions{angstrom}  cell{angstrom}
       E  3.05627e+01  1.64792e+01  3.11498e+01
       E -9.58897e+00  7.83236e+01  2.79982e+01
       E -4.78033e+01  2.64426e+01  3.89005e+00
3
# CELL(abcABC): 1322.94304  1322.94304  1322.94304    90.00000    90.00000    90.00000  Step:        1800  Bead:      16 positions{angstrom}  cell{angstrom}
       E  1.62320e+01  1.76043e+01  2.31542e+01
       E -4.42850e+01  6.89612e+01  2.94045e+01
       E -8.67401e+01  6.13144e+01  4.50928e+01
3
# CELL(abcABC): 1322.94304  1322.94304  1322.94304    90.00000    90.00000    90.00000  Step:        1900  Bead:      16 positions{angstrom}  cell{angstrom}
       E  9.25260e+00  1.94910e+01  2.77008e+01
       E -5.60757e+01  5.44231e+01  5.28697e+00
       E -6.41796e+01  4.11569e+01  3.38455e+01
3
# CELL(abcABC): 1322.94304  1322.94304  1322.94304    90.00000    90.00000    90.00000  Step:        2000  Bead:      16 positions{angstrom}  cell{angstrom}
       E -2.79541e+01 -2.33665e+01  5.31119e+01
       E -4.41021e+01  6.02692e+01  2.14766e+01
       E -9.71322e+01  6.36944e+01  4.68291e+01
3
# CELL(abcABC): 1322.94304  1322.94304  1322.94304    90.00000    90.00000    90.00000  Step:        2100  Bead:      16 positions{angstrom}  cell{angstrom}
       E -3.10618e+01 -2.26455e+01  6.34816e+01
       E -5.13810e+01  4.62349e+01  1.25509e+01
       E -6.26835e+01  6.71121e+01  2.32058e+01
3
# CELL(abcABC): 1322.94304  1322.94304  1322.94304    90.00000    90.00000    90.00000  Step:        2200  Bead:      16 positions{angstrom}  cell{angstrom}
       E -3.66839e+01 -3.82669e+01  6.94123e+01
       E -2.36238e+01 -1.41831e+01 -1.85222e+01
       E -3.61648e+01  3.22803e+01  1.15993e+00
3
# CELL(abcABC): 1322.94304  1322.94304  1322.94304    90.00000    90.00000    90.00000  Step:        2300  Bead:      16 positions{angstrom}  cell{angstrom}
       E -4.11943e+01 -6.91458e+01  6.86934e+01
       E -9.79473e+00 -4.95632e+00  3.99568e+00
       E -1.50095e+01  2.69348e+01  3.37637e+01
3
# CELL(abcABC): 1322.94304  1322.94304  1322.94304    90.00000    90.00000    90.00000  Step:        2400  Bead:      16 positions{angstrom}  cell{angstrom}
       E -4.56133e+01 -2.89265e+01  2.19764e+00
       E  1.70215e-01  1.66194e+01  3.36195e+00
       E -2.20793e+01  1.53223e+01  1.89423e+01
3
# CELL(abcABC): 1322.94304  1322.94304  1322.94304    90.00000    90.00000    90.00000  Step:        2500  Bead:      16 positions{angstrom}  cell{angstrom}
       E -2.69548e+01 -1.44697e+00  3.05778e+01
       E  2.32101e+01 -1.84941e+01 -4.99178e+01
       E  2.43237e+01 -1.73834e+01  2.19808e+01
3
# CELL(abcABC): 1322.94304  1322.94304  1322.94304    90.00000    90.00000    90.00000  Step:        2600  Bead:      16 positions{angstrom}  cell{angstrom}
       E -2.13465e+01 -2.40125e+01  2.50316e+01
       E -6.16895e+01 -4.41337e+01 -3.89532e+01
       E  5.79820e+00 -4.51051e+01  2.07104e+01
3
# CELL(abcABC): 1322.94304  1322.94304  1322.94304    90.00000    90.00000    90.00000  Step:        2700  Bead:      16 positions{angstrom}  cell{angstrom}
       E -3.54981e+01  5.58205e+00  1.15706e+01
       E -3.24332e+01 -2.57026e+01 -2.12137e+00
       E  3.94989e+01 -1.71101e+01 -9.96904e-01
3
# CELL(abcABC): 1322.94304  1322.94304  1322.94304    90.00000    90.00000    90.00000  Step:        2800  Bead:      16 positions{angstrom}  cell{angstrom}
       E -3.11588e+01 -3.66577e+00  3.15832e+01
       E -4.59253e+01 -6.44672e+01 -1.40554e+01
       E  8.76847e+00 -1.30747e+01 -8.72749e+00
3
# CELL(abcABC): 1322.94304  1322.94304  1322.94304    90.00000    90.00000    90.00000  Step:        2900  Bead:      16 positions{angstrom}  cell{angstrom}
       E -7.71348e+01 -1.66540e+00  5.86320e+01
       E -5.44016e+01 -6.39056e+01 -3.13898e+01
       E -2.09926e+01 -6.25988e+00  6.25666e+00
3
# CELL(abcABC): 1322.94304  1322.94304  1322.94304    90.00000    90.00000    90.00000  Step:        3000  Bead:      16 positions{angstrom}  cell{angstrom}
       E -2.43629e+01 -8.23783e+00  6.65769e+01
       E -3.66989e+01 -6.33766e+01  2.89888e+01
       E -5.26571e+00  3.35384e+01 -1.61755e+01
3
# CELL(abcABC): 1322.94304  1322.94304  1322.94304    90.00000    90.00000    90.00000  Step:        3100  Bead:      16 positions{angstrom}  cell{angstrom}
       E -5.51259e+01 -2.60090e+01  2.72783e+01
       E -7.18697e+01 -3.29408e+01  1.24043e+01
       E  1.71586e+01  5.79208e+01  5.86598e+00
3
# CELL(abcABC): 1322.94304  1322.94304  1322.94304    90.00000    90.00000    90.00000  Step:        3200  Bead:      16 positions{angstrom}  cell{angstrom}
       E -3.30912e+01  9.58088e+00 -1.17655e+01
       E -7.03627e+01  9.78997e-01  5.23335e+01
       E  6.54464e+01  4.65038e+01  2.65429e+01
3
# CELL(abcABC): 1322.94304  1322.94304  1322.94304    90.00000    90.00000    90.00000  Step:        3300  Bead:      16 positions{angstrom}  cell{angstrom}
       E -1.93159e+01 -1.06440e+01 -8.61282e+00
       E -4.57385e+01 -2.94195e+01  5.64861e+01
       E -3.94829e+00  8.62806e+01  6.23509e+01
3
# CELL(abcABC): 1322.94304  1322.94304  1322.94304    90.00000    90.00000    90.00000  Step:        3400  Bead:      16 positions{angstrom}  cell{angstrom}
       E -8.51718e+01 -1.07023e+01  3.50021e+01
       E -4.23911e+01 -1.08461e+01  7.45245e+01
       E -2.35859e+01  8.28395e+01  5.63240e+01
3
# CELL(abcABC): 1322.94304  1322.94304  1322.94304    90.00000    90.00000    90.00000  Step:        3500  Bead:      16 positions{angstrom}  cell{angstrom}
       E -8.70909e+01  1.57747e+01  4.51922e+01
       E  3.07517e+00  3.87981e+00  2.14470e+01
       E  1.34965e+00  2.08730e+01  4.79857e+01
3
# CELL(abcABC): 1322.94304  1322.94304  1322.94304    90.00000    90.00000    90.00000  Step:        3600  Bead:      16 positions{angstrom}  cell{angstrom}
       E -8.15040e+01  9.06041e+00  2.25405e+01
       E  1.88906e+01  1.57674e+01  1.74820e+01
       E  2.74027e+00  2.05179e+01  2.34754e+01
3
# CELL(abcABC): 1322.94304  1322.94304  1322.94304    90.00000    90.00000    90.00000  Step:        3700  Bead:      16 positions{angstrom}  cell{angstrom}
       E -7.11506e+01 -1.97018e+01 -1.27093e+01
       E -1.41895e+01  1.06544e+01  7.47246e+00
       E -4.73853e+01  3.93503e+01 -1.19129e+00
3
# CELL(abcABC): 1322.94304  1322.94304  1322.94304    90.00000    90.00000    90.00000  Step:        3800  Bead:      16 positions{angstrom}  cell{angstrom}
       E -8.94928e+01 -7.24568e+00 -3.33032e+01
       E -1.92025e+01 -3.99011e+01 -1.41714e+01
       E -7.35589e+01  5.70793e+00 -1.21010e+01
3
# CELL(abcABC): 1322.94304  1322.94304  1322.94304    90.00000    90.00000    90.00000  Step:        3900  Bead:      16 positions{angstrom}  cell{angstrom}
       E -8.98963e+01  3.38468e+00 -5.65461e+01
       E -4.69792e+01 -2.26588e+01  5.53493e+00
       E -3.03173e+01  9.87061e+00 -2.89503e+01
3
# CELL(abcABC): 1322.94304  1322.94304  1322.94304    90.00000    90.00000    90.00000  Step:        4000  Bead:      16 positions{angstrom}  cell{angstrom}
       E -8.71694e+01  2.00398e+01 -5.50168e+01
       E -3.99430e+01  4.80106e+00  6.51412e+01
       E -1.33447e+01  1.98238e+01  3.10929e+00
3
# CELL(abcABC): 1322.94304  1322.94304  1322.94304    90.00000    90.00000    90.00000  Step:        4100  Bead:      16 positions{angstrom}  cell{angstrom}
       E -3.86874e+01  4.53387e+01 -6.48247e+01
       E -7.25801e+01  4.24354e+01  4.47447e+01
       E -3.16106e+01 -1.82278e+01  1.89240e+01
3
# CELL(abcABC): 1322.94304  1322.94304  1322.94304    90.00000    90.00000    90.00000  Step:        4200  Bead:      16 positions{angstrom}  cell{angstrom}
       E -3.29328e+01 -6.30779e+00 -8.31160e+01
       E -6.52677e+01  3.12065e+01  3.06822e+01
       E  1.54804e+01  6.03043e+00  6.32153e+01
3
# CELL(abcABC): 1322.94304  1322.94304  1322.94304    90.00000    90.00000    90.00000  Step:        4300  Bead:      16 positions{angstrom}  cell{angstrom}
       E -5.49284e+01  3.96618e+01 -4.33801e+01
       E -5.53061e+01  5.26468e+01  3.23595e+01
       E -3.00089e+00  8.58372e+00  6.31711e+01
3
# CELL(abcABC): 1322.94304  1322.94304  1322.94304    90.00000    90.00000    90.00000  Step:        4400  Bead:      16 positions{angstrom}  cell{angstrom}
       E -3.06693e+01  8.07177e+00 -3.36662e+01
       E -4.27844e+01  4.27306e+01 -1.45560e+01
       E -1.61959e+01 -2.58995e+00 -5.11892e+00
3
# CELL(abcABC): 1322.94304  1322.94304  1322.94304    90.00000    90.00000    90.00000  Step:        4500  Bead:      16 positions{angstrom}  cell{angstrom}
       E -7.30596e+01  2.67326e+01 -4.65282e+01
       E -5.35835e+01  6.97105e+01 -3.76336e+01
       E -8.72352e+00  3.23362e+00  8.21743e+00
3
# CELL(abcABC): 1322.94304  1322.94304  1322.94304    90.00000    90.00000    90.00000  Step:        4600  Bead:      16 positions{angstrom}  cell{angstrom}
       E -2.00104e+01  1.73102e+01 -4.30623e+01
       E -4.44141e+01  6.99787e+01 -5.92430e+01
       E -1.33787e+01  1.05119e+01 -1.84428e+01
3
# CELL(abcABC): 1322.94304  1322.94304  1322.94304    90.00000    90.00000    90.00000  Step:        4700  Bead:      16 positions{angstrom}  cell{angstrom}
       E -1.42916e+01  4.37732e+01 -3.95840e+01
       E -4.77928e+01  3.36549e+01 -5.18964e+01
       E  3.00592e+01 -5.27430e+00 -9.95661e-01
3
# CELL(abcABC): 1322.94304  1322.94304  1322.94304    90.00000    90.00000    90.00000  Step:        4800  Bead:      16 positions{angstrom}  cell{angstrom}
       E -2.75397e+01  9.81901e+00 -9.92165e+00
       E -3.87814e+01  1.27956e+00 -3.64025e+01
       E  1.23493e+01  8.73566e+00  9.93126e+00
3
# CELL(abcABC): 1322.94304  1322.94304  1322.94304    90.00000    90.00000    90.00000  Step:        4900  Bead:      16 positions{angstrom}  cell{angstrom}
       E  2.39654e+00  1.97681e+01  1.59985e+01
       E -1.23699e+01  1.91414e+01 -2.90825e+01
       E  2.68467e+01  1.67421e+01  5.21403e+00
3
# CELL(abcABC): 1322.94304  1322.94304  1322.94304    90.00000    90.00000    90.00000  Step:        5000  Bead:      16 positions{angstrom}  cell{angstrom}
       E -1.15410e+01 -3.29832e+01  1.71756e+01
       E -8.10635e+00  1.79966e+01 -6.02017e+01
       E  2.67132e+01 -1.51296e+01 -2.29383e-01
3
# CELL(abcABC): 1322.94304  1322.94304  1322.94304    90.00000    90.00000    90.00000  Step:        5100  Bead:      16 positions{angstrom}  cell{angstrom}
       E -3.11789e+01  2.68179e+01  2.61314e+01
       E -7.40085e-01  4.96658e+01 -6.14430e+01
       E -3.79301e+00 -3.99328e+00 -1.39675e+01
3
# CELL(abcABC): 1322.94304  1322.94304  1322.94304    90.00000    90.00000    90.00000  Step:        5200  Bead:      16 positions{angstrom}  cell{angstrom}
       E -2.56411e+01 -2.25857e+01  2.39289e+01
       E  2.39435e-01  4.20789e+01 -3.44355e+01
       E -1.87475e+01  3.59995e+01  9.85415e+00
3
# CELL(abcABC): 1322.94304  1322.94304  1322.94304    90.00000    90.00000    90.00000  Step:        5300  Bead:      16 positions{angstrom}  cell{angstrom}
       E -3.67881e+01 -6.16191e+00  2.80860e+01
       E  4.28353e+00  7.24766e+01  4.95015e+00
       E -4.71697e+01  3.91403e+01  3.87527e+01
3
# CELL(abcABC): 1322.94304  1322.94304  1322.94304    90.00000    90.00000    90.00000  Step:        5400  Bead:      16 positions{angstrom}  cell{angstrom}
       E -5.67476e+00 -4.26357e+01  2.21040e+01
       E  1.79476e+01  1.30935e+01 -5.60673e+00
       E -3.99236e+01 -7.28424e+00  4.38775e+01
3
# CELL(abcABC): 1322.94304  1322.94304  1322.94304    90.00000    90.00000    90.00000  Step:        5500  Bead:      16 positions{angstrom}  cell{angstrom}
       E -2.12361e+01  2.03305e+01  7.66810e+00
       E  1.08873e+00  5.68795e+00 -1.43102e+01
       E -3.11381e+01 -1.19153e+01  4.95016e+01
3
# CELL(abcABC): 1322.94304  1322.94304  1322.94304    90.00000    90.00000    90.00000  Step:        5600  Bead:      16 positions{angstrom}  cell{angstrom}
       E -6.20060e+00 -2.35621e+00  2.87480e+00
       E -5.33880e+01 -2.54597e+00 -1.22917e+01
       E -4.49916e+01 -1.53094e+01  1.40456e+01
3
# CELL(abcABC): 1322.94304  1322.94304  1322.94304    90.00000    90.00000    90.00000  Step:        5700  Bead:      16 positions{angstrom}  cell{angstrom}
       E  2.51644e+01 -6.43095e+01 -1.40223e+01
       E -5.36831e+01  3.49865e+01  2.25450e+01
       E -2.39872e+01 -7.53282e+00  8.34072e+00
3
# CELL(abcABC): 1322.94304  1322.94304  1322.94304    90.00000    90.00000    90.00000  Step:        5800  Bead:      16 positions{angstrom}  cell{angstrom}
       E -1.49083e+01 -2.12098e+01 -6.62194e-01
       E -3.40693e+01  3.38215e+01 -1.29639e+01
       E -3.62458e+01  1.99029e+01 -2.75678e+01
3
# CELL(abcABC): 1322.94304  1322.94304  1322.94304    90.00000    90.00000    90.00000  Step:        5900  Bead:      16 positions{angstrom}  cell{angstrom}
       E  1.57365e+01  1.78431e+00 -9.29629e+00
       E  2.93955e+00  2.37088e+01 -2.33932e-01
       E  8.33230e+00  7.61210e+00 -2.25278e+01
3
# CELL(abcABC): 1322.94304  1322.94304  1322.94304    90.00000    90.00000    90.00000  Step:        6000  Bead:      16 positions{angstrom}  cell{angstrom}
       E  2.17685e+01 -3.91408e+01  1.94747e+01
       E  1.04923e+01 -7.16753e+00  2.79892e+01
       E -6.84679e+00  5.84057e+00  1.57278e+01
3
# CELL(abcABC): 1322.94304  1322.94304  1322.94304    90.00000    90.00000    90.00000  Step:        6100  Bead:      16 positions{angstrom}  cell{angstrom}
       E -1.96354e+01 -5.38973e+01 -3.21719e+01
       E  3.73007e+01  1.79952e+01  3.54112e+01
       E  2.29101e+01  1.15735e+01 -3.00118e+01
3
# CELL(abcABC): 1322.94304  1322.94304  1322.94304    90.00000    90.00000    90.00000  Step:        6200  Bead:      16 positions{angstrom}  cell{angstrom}
       E -2.04492e+01 -3.50375e+01 -5.96376e+01
       E  6.59907e+01  3.43995e+01  1.29640e+01
       E  3.47317e+01  1.43187e+01  7.60588e+00
3
# CELL(abcABC): 1322.94304  1322.94304  1322.94304    90.00000    90.00000    90.00000  Step:        6300  Bead:      16 positions{angstrom}  cell{angstrom}
       E -2.15338e+01 -6.12418e+01 -7.84421e+01
       E  6.89403e+01  2.75867e+01 -2.74663e+01
       E  2.48592e+01 -8.11992e+00  2.95362e+00
3
# CELL(abcABC): 1322.94304  1322.94304  1322.94304    90.00000    90.00000    90.00000  Step:        6400  Bead:      16 positions{angstrom}  cell{angstrom}
       E -4.41348e+00 -6.29262e+01 -6.42139e+01
       E  2.63148e+01  1.19140e+01 -2.85534e+01
       E  2.72612e+01  3.37925e+00 -1.80365e+01
3
# CELL(abcABC): 1322.94304  1322.94304  1322.94304    90.00000    90.00000    90.00000  Step:        6500  Bead:      16 positions{angstrom}  cell{angstrom}
       E  6.78937e+00 -7.62232e+01 -6.91558e+01
       E -2.38040e+01  8.90646e+00 -1.02655e+01
       E  6.01343e+01 -3.91371e+01 -3.60797e+01
3
# CELL(abcABC): 1322.94304  1322.94304  1322.94304    90.00000    90.00000    90.00000  Step:        6600  Bead:      16 positions{angstrom}  cell{angstrom}
       E -6.24927e+00 -7.79718e+01 -5.83713e+01
       E  1.87955e+01 -3.04387e+01 -2.20490e+00
       E  5.94433e+01 -2.64151e+01 -2.37323e+01
3
# CELL(abcABC): 1322.94304  1322.94304  1322.94304    90.00000    90.00000    90.00000  Step:        6700  Bead:      16 positions{angstrom}  cell{angstrom}
       E  5.71820e+00 -9.82468e+01 -6.23340e+01
       E -5.90319e+00  4.96358e+00 -5.31834e+00
       E  5.40903e+00 -6.18275e+00 -1.70991e+00
3
# CELL(abcABC): 1322.94304  1322.94304  1322.94304    90.00000    90.00000    90.00000  Step:        6800  Bead:      16 positions{angstrom}  cell{angstrom}
       E -2.42323e+01 -1.11453e+02 -5.72961e+01
       E  3.76204e+00 -1.55179e+01 -6.16970e+00
       E  5.09537e+01  1.39397e+00 -9.31643e+00
3
# CELL(abcABC): 1322.94304  1322.94304  1322.94304    90.00000    90.00000    90.00000  Step:        6900  Bead:      16 positions{angstrom}  cell{angstrom}
       E  3.29219e+00 -9.32603e+01 -4.81079e+01
       E  1.96157e+00 -3.83528e+01 -6.48137e+00
       E  5.17659e+00  1.73252e+01  5.61129e+00
3
# CELL(abcABC): 1322.94304  1322.94304  1322.94304    90.00000    90.00000    90.00000  Step:        7000  Bead:      16 positions{angstrom}  cell{angstrom}
       E  5.07554e+01 -9.51940e+01 -3.94006e+00
       E -2.02757e+01 -3.72036e+01  4.04412e+01
       E -1.07338e+00  4.96434e+01 -4.69982e+01
3
# CELL(abcABC): 1322.94304  1322.94304  1322.94304    90.00000    90.00000    90.00000  Step:        7100  Bead:      16 positions{angstrom}  cell{angstrom}
       E  4.57894e+01 -1.82438e+01  9.49201e+00
       E -1.10976e+01 -6.70970e+00  4.65827e+01
       E  4.13849e+01  2.37446e+01 -5.54579e+01
3
# CELL(abcABC): 1322.94304  1322.94304  1322.94304    90.00000    90.00000    90.00000  Step:        7200  Bead:      16 positions{angstrom}  cell{angstrom}
       E  4.88315e+01 -2.98310e+01 -1.59058e+01
       E -1.28773e+01  2.88854e+01  2.19582e+01
       E  3.04026e+01  5.30316e+01 -2.31943e+01
3
# CELL(abcABC): 1322.94304  1322.94304  1322.94304    90.00000    90.00000    90.00000  Step:        7300  Bead:      16 positions{angstrom}  cell{angstrom}
       E  1.53842e+01 -4.40691e+01 -5.68231e+01
       E -1.17597e+01  2.82451e+01  3.66426e+01
       E  1.99805e+01  4.51529e+01 -2.57795e+01
3
# CELL(abcABC): 1322.94304  1322.94304  1322.94304    90.00000    90.00000    90.00000  Step:        7400  Bead:      16 positions{angstrom}  cell{angstrom}
       E  3.70592e+01 -4.01850e+01 -5.82566e+01
       E -1.45158e+01  2.84050e+01 -4.64291e+00
       E  1.33921e+01  2.62657e+01  3.06637e+01
3
# CELL(abcABC): 1322.94304  1322.94304  1322.94304    90.00000    90.00000    90.00000  Step:        7500  Bead:      16 positions{angstrom}  cell{angstrom}
       E  2.73102e+01 -8.94509e+01 -5.13679e+01
       E -2.96862e+01 -1.54878e+01 -4.07626e+00
       E  2.00254e+01  2.28742e+01  1.25377e+01
3
# CELL(abcABC): 1322.94304  1322.94304  1322.94304    90.00000    90.00000    90.00000  Step:        7600  Bead:      16 positions{angstrom}  cell{angstrom}
       E  2.94048e+01 -5.13531e+01 -2.02287e+01
       E  4.40405e+00 -2.12269e+01 -2.98630e+01
       E -7.31650e+00  4.14019e+00 -1.34104e+01
3
# CELL(abcABC): 1322.94304  1322.94304  1322.94304    90.00000    90.00000    90.00000  Step:        7700  Bead:      16 positions{angstrom}  cell{angstrom}
       E  2.78658e+01 -5.98827e+01 -2.13701e+01
       E  2.04291e+00 -4.35216e+01 -5.10418e+01
       E  4.15118e+01  1.58429e+01 -2.98077e+01
3
# CELL(abcABC): 1322.94304  1322.94304  1322.94304    90.00000    90.00000    90.00000  Step:        7800  Bead:      16 positions{angstrom}  cell{angstrom}
       E  3.68910e+01 -4.65747e+01 -2.41567e+01
       E -3.80366e+00 -1.55608e+01 -2.37253e+01
       E  1.40471e+01 -6.22490e+00 -3.07042e+01
3
# CELL(abcABC): 1322.94304  1322.94304  1322.94304    90.00000    90.00000    90.00000  Step:        7900  Bead:      16 positions{angstrom}  cell{angstrom}
       E  3.92635e+01 -3.56058e+01 -1.29129e+01
       E  1.48242e+01  1.91695e+01 -2.24658e+01
       E -2.07652e+01 -4.06724e+01 -4.54740e+01
3
# CELL(abcABC): 1322.94304  1322.94304  1322.94304    90.00000    90.00000    90.00000  Step:        8000  Bead:      16 positions{angstrom}  cell{angstrom}
       E  2.30402e+01 -1.09098e+01 -3.17363e+01
       E -8.90308e+00  2.50110e+01 -1.35888e+01
       E -1.97531e+01 -2.85288e+01 -3.41719e+01
3
# CELL(abcABC): 1322.94304  1322.94304  1322.94304    90.00000    90.00000    90.00000  Step:        8100  Bead:      16 positions{angstrom}  cell{angstrom}
       E  2.98497e+00  1.03344e+01 -6.19244e+01
       E -3.18172e+01  3.64675e+01 -2.19761e+01
       E  4.43283e+00 -5.45620e+00 -4.65866e+00
3
# CELL(abcABC): 1322.94304  1322.94304  1322.94304    90.00000    90.00000    90.00000  Step:        8200  Bead:      16 positions{angstrom}  cell{angstrom}
       E  3.15843e+01  3.36563e+01 -6.53389e+01
       E -1.96929e+01 -9.95322e+00 -6.54424e+00
       E -3.45994e+01 -5.25383e+01  3.28122e+01
3
# CELL(abcABC): 1322.94304  1322.94304  1322.94304    90.00000    90.00000    90.00000  Step:        8300  Bead:      16 positions{angstrom}  cell{angstrom}
       E  2.21398e+01  3.52923e+01 -5.20020e+01
       E -7.36387e+00  3.34966e+01 -1.33042e+01
       E  1.03078e+00 -5.95338e+01  6.54915e+01
3
# CELL(abcABC): 1322.94304  1322.94304  1322.94304    90.00000    90.00000    90.00000  Step:        8400  Bead:      16 positions{angstrom}  cell{angstrom}
       E -1.06451e+01  2.52666e+01 -4.54790e+01
       E  9.39471e+00  4.24831e+01  3.83453e+00
       E -7.01820e+00 -5.62907e+01  6.70680e+01
3
# CELL(abcABC): 1322.94304  1322.94304  1322.94304    90.00000    90.00000    90.00000  Step:        8500  Bead:      16 positions{angstrom}  cell{angstrom}
       E -5.18924e+00 -2.71667e+01  4.47029e+00
       E  4.46093e+01  9.14530e+00 -3.64864e+01
       E  7.78412e+00 -3.78074e+01  6.82327e+01
3
# CELL(abcABC): 1322.94304  1322.94304  1322.94304    90.00000    90.00000    90.00000  Step:        8600  Bead:      16 positions{angstrom}  cell{angstrom}
       E  5.50677e+00 -1.53605e+01 -1.85049e+01
       E  4.04185e+01  1.36836e+01 -2.94047e+01
       E -1.86551e+00 -1.90500e+01  1.92504e+01
3
# CELL(abcABC): 1322.94304  1322.94304  1322.94304    90.00000    90.00000    90.00000  Step:        8700  Bead:      16 positions{angstrom}  cell{angstrom}
       E  1.66151e+00 -1.39009e+01 -4.75309e+00
       E  4.79091e+01  1.76965e+01 -4.49922e+01
       E  1.33790e+01 -2.89210e+01  3.81139e+01
3
# CELL(abcABC): 1322.94304  1322.94304  1322.94304    90.00000    90.00000    90.00000  Step:        8800  Bead:      16 positions{angstrom}  cell{angstrom}
       E -2.15286e+01  3.01106e+01  2.44197e+00
       E  2.51587e+01  3.23414e-01 -1.37671e+01
       E  3.62610e+01 -4.51110e+01  4.51424e+01
3
# CELL(abcABC): 1322.94304  1322.94304  1322.94304    90.00000    90.00000    90.00000  Step:        8900  Bead:      16 positions{angstrom}  cell{angstrom}
       E -3.19734e+01  4.01018e+01  5.17367e+01
       E  4.85275e+00 -1.58865e+00  1.52924e+01
       E  1.79876e+01 -4.22663e+01  2.30006e+01
3
# CELL(abcABC): 1322.94304  1322.94304  1322.94304    90.00000    90.00000    90.00000  Step:        9000  Bead:      16 positions{angstrom}  cell{angstrom}
       E -2.58019e+01  3.65386e+01  3.95841e+01
       E -2.90593e+00  9.64984e+00  4.88800e+01
       E  4.46694e+01 -5.12055e+01  3.29443e+01
3
# CELL(abcABC): 1322.94304  1322.94304  1322.94304    90.00000    90.00000    90.00000  Step:        9100  Bead:      16 positions{angstrom}  cell{angstrom}
       E  9.62821e+00  5.09755e+00  3.35512e+01
       E  1.14316e+01 -1.80146e+01  7.80535e+01
       E  1.96770e+01 -1.03039e+01  1.63276e+01
3
# CELL(abcABC): 1322.94304  1322.94304  1322.94304    90.00000    90.00000    90.00000  Step:        9200  Bead:      16 positions{angstrom}  cell{angstrom}
       E  4.76547e+01  1.14402e+01  2.13421e+01
       E -2.84285e+01  2.46359e+01  5.27187e+01
       E  3.80854e+01 -6.35403e+01  6.16657e+00
3
# CELL(abcABC): 1322.94304  1322.94304  1322.94304    90.00000    90.00000    90.00000  Step:        9300  Bead:      16 positions{angstrom}  cell{angstrom}
       E  1.49165e+01  1.46219e+01  7.39369e+00
       E -5.11977e+01  3.88917e+00  2.34270e+01
       E  4.90086e+00 -5.93098e+01 -1.77320e+01
3
# CELL(abcABC): 1322.94304  1322.94304  1322.94304    90.00000    90.00000    90.00000  Step:        9400  Bead:      16 positions{angstrom}  cell{angstrom}
       E -6.60496e-01  6.37233e+01 -2.39271e+01
       E -4.42920e+01 -3.97992e+01  1.12262e+01
       E  1.54949e+01 -3.02518e+01 -3.53965e+00
3
# CELL(abcABC): 1322.94304  1322.94304  1322.94304    90.00000    90.00000    90.00000  Step:        9500  Bead:      16 positions{angstrom}  cell{angstrom}
       E  3.08238e+01  5.59092e+01 -7.24047e+01
       E -1.07185e+01 -3.78069e+01 -3.91109e+00
       E  2.90848e+01 -2.01302e+01  4.11285e+01
3
# CELL(abcABC): 1322.94304  1322.94304  1322.94304    90.00000    90.00000    90.00000  Step:        9600  Bead:      16 positions{angstrom}  cell{angstrom}
       E  1.57319e+01  6.69783e+00 -5.37053e+01
       E  1.78919e+01 -4.28763e+01  2.09196e+01
       E  3.57220e+00 -3.16731e+01 -3.40978e-01
3
# CELL(abcABC): 1322.94304  1322.94304  1322.94304    90.00000    90.00000    90.00000  Step:        9700  Bead:      16 positions{angstrom}  cell{angstrom}
       E  8.24201e+00 -5.28717e+01 -1.40021e+01
       E  3.62953e+01 -7.37927e+01  3.67089e+01
       E  1.39909e+01  1.02453e+01  1.11526e+01
3
# CELL(abcABC): 1322.94304  1322.94304  1322.94304    90.00000    90.00000    90.00000  Step:        9800  Bead:      16 positions{angstrom}  cell{angstrom}
       E -4.15956e+01 -5.32737e+01 -2.07144e+01
       E  2.90925e+01 -8.95746e+01  2.55113e+00
       E -8.26190e+00 -3.52160e+01  2.38495e+01
3