3
# CELL(abcABC): 1322.94304  1322.94304  1322.94304    90.00000    90.00000    90.00000  Step:           0  Bead:      28 positions{angstrom}  cell{angstrom}
       E  0.00000e+00  0.00000e+00  0.00000e+00
       E  0.00000e+00  0.00000e+00  0.00000e+00
       E  0.00000e+00  0.00000e+00  0.00000e+00
3
# CELL(abcABC): 1322.94304  1322.94304  1322.94304    90.00000    90.00000    90.00000  Step:         100  Bead:      28 positions{angstrom}  cell{angstrom}
       E  1.61271e+00 -2.15110e+01  5.64767e+00
       E  9.88786e+00 -2.30356e+01  6.46317e+00
       E  1.59713e+01  8.71900e+00 -1.42939e+01
3
# CELL(abcABC): 1322.94304  1322.94304  1322.94304    90.00000    90.00000    90.00000  Step:         200  Bead:      28 positions{angstrom}  cell{angstrom}
       E  3.59569e+00  7.12799e+00  2.90815e+01
       E  3.15011e+00 -1.58508e+01  6.90930e-01
       E  4.14277e+01 -6.40436e+00  2.81572e+01
3
# CELL(abcABC): 1322.94304  1322.94304  1322.94304    90.00000    90.00000    90.00000  Step:         300  Bead:      28 positions{angstrom}  cell{angstrom}
       E  2.36963e+01  1.24630e-01  1.83673e+01
       E -6.67540e+00 -1.98145e+01  2.25849e+01
       E  3.52426e+01  2.05470e+00  8.65271e+00
3
# CELL(abcABC): 1322.94304  1322.94304  1322.94304    90.00000    90.00000    90.00000  Step:         400  Bead:      28 positions{angstrom}  cell{angstrom}
       E  1.96974e+01 -2.77896e+00 -1.11277e+01
       E -2.68711e+01 -3.82038e+00  1.57203e+01
       E  4.88852e+01 -1.24158e+01 -1.56005e+01
3
# CELL(abcABC): 1322.94304  1322.94304  1322.94304    90.00000    90.00000    90.00000  Step:         500  Bead:      28 positions{angstrom}  cell{angstrom}
       E  2.45787e+01 -2.91331e+00 -2.15993e+01
       E -1.03295e+01  1.34277e+01  2.47345e+01
       E  5.48399e+01 -1.43436e+01 -8.12106e+00
3
# CELL(abcABC): 1322.94304  1322.94304  1322.94304    90.00000    90.00000    90.00000  Step:         600  Bead:      28 positions{angstrom}  cell{angstrom}
       E  3.91483e+01 -1.04877e+01  3.78906e+01
       E -2.32751e+01 -3.19990e+01  7.25588e+01
       E  4.76741e+01  8.52111e+00  7.41017e+00
3
# CELL(abcABC): 1322.94304  1322.94304  1322.94304    90.00000    90.00000    90.00000  Step:         700  Bead:      28 positions{angstrom}  cell{angstrom}
       E  3.32006e+01 -1.15389e+00 -3.97073e+00
       E -4.99323e+01  1.67759e+01  3.24491e+01
       E -4.14222e+00  3.85591e+01  3.05402e+01
3
# CELL(abcABC): 1322.94304  1322.94304  1322.94304    90.00000    90.00000    90.00000  Step:         800  Bead:      28 positions{angstrom}  cell{angstrom}
       E  5.68936e+01  1.89840e+01  8.77196e+00
       E -2.86620e+01  3.05372e+00  5.44955e+01
       E -3.49047e+01 -6.86647e+00  3.46788e+01
3
# CELL(abcABC): 1322.94304  1322.94304  1322.94304    90.00000    90.00000    90.00000  Step:         900  Bead:      28 positions{angstrom}  cell{angstrom}
       E  3.28102e+01 -1.01353e+01 -4.13991e+00
       E -3.50647e+01  6.20106e+01  3.51235e+01
       E -5.15261e+00 -1.20032e+00  7.30887e+01
3
# CELL(abcABC): 1322.94304  1322.94304  1322.94304    90.00000    90.00000    90.00000  Step:        1000  Bead:      28 positions{angstrom}  cell{angstrom}
       E  3.10739e+01  5.42855e+00 -1.12886e+00
       E -2.36944e+01  5.40949e+01  1.17429e+01
       E  2.52626e+01 -1.08641e+01  1.70342e+01
3
# CELL(abcABC): 1322.94304  1322.94304  1322.94304    90.00000    90.00000    90.00000  Step:        1100  Bead:      28 positions{angstrom}  cell{angstrom}
       E  2.27147e+01  3.66422e+00 -2.70244e+00
       E -4.21124e+01  4.27984e+01  5.63936e-02
       E  5.54924e+01 -2.14691e+01 -1.20747e+01
3
# CELL(abcABC): 1322.94304  1322.94304  1322.94304    90.00000    90.00000    90.00000  Step:        1200  Bead:      28 positions{angstrom}  cell{angstrom}
       E -1.93241e+01 -1.33662e+01 -4.98589e+00
       E -1.23564e+01  4.41368e+01 -5.93711e+00
       E  3.46655e+01  5.40810e+01 -8.71685e+00
3
# CELL(abcABC): 1322.94304  1322.94304  1322.94304    90.00000    90.00000    90.00000  Step:        1300  Bead:      28 positions{angstrom}  cell{angstrom}
       E  7.76875e+00  1.30220e+01 -3.72076e+01
       E -1.54948e+01  3.58395e+01 -3.31727e+01
       E  1.66726e+01  5.48065e+01 -1.55218e+01
3
# CELL(abcABC): 1322.94304  1322.94304  1322.94304    90.00000    90.00000    90.00000  Step:        1400  Bead:      28 positions{angstrom}  cell{angstrom}
       E -7.48170e+00  2.91722e+01 -5.61372e+01
       E -3.38993e+01  1.81467e+01 -5.00041e+01
       E  3.21917e+01 -9.56575e-01 -1.52502e+01
3
# CELL(abcABC): 1322.94304  1322.94304  1322.94304    90.00000    90.00000    90.00000  Step:        1500  Bead:      28 positions{angstrom}  cell{angstrom}
       E -4.83685e+01  4.56833e+01 -6.63105e+01
       E -3.18161e+01  4.86472e+01  3.07109e+00
       E  3.56120e+01  4.20482e+00 -1.02355e+01
3
# CELL(abcABC): 1322.94304  1322.94304  1322.94304    90.00000    90.00000    90.00000  Step:        1600  Bead:      28 positions{angstrom}  cell{angstrom}
       E -1.79344e+01  4.84576e+01 -9.44694e+01
       E -1.50332e+01  6.11149e+01  2.06235e+01
       E -2.50083e+00 -2.35532e+01  3.28796e+00
3
# CELL(abcABC): 1322.94304  1322.94304  1322.94304    90.00000    90.00000    90.00000  Step:        1700  Bead:      28 positions{angstrom}  cell{angstrom}
       E -4.82103e+01  2.88993e+01 -2.41412e+01
       E -5.24292e+01  4.28875e+01  1.49375e+01
       E -7.12319e+00 -1.81742e+01  1.00918e+01
3
# CELL(abcABC): 1322.94304  1322.94304  1322.94304    90.00000    90.00000    90.00000  Step:        1800  Bead:      28 positions{angstrom}  cell{angstrom}
       E -2.74086e+01  1.56832e+01  2.94059e+01
       E -8.50246e+01  6.79682e+01 -3.16378e+01
       E -3.22235e+01 -1.20027e+01 -3.68098e+00
3
# CELL(abcABC): 1322.94304  1322.94304  1322.94304    90.00000    90.00000    90.00000  Step:        1900  Bead:      28 positions{angstrom}  cell{angstrom}
       E -4.32336e+01  3.14462e+01  8.61965e+00
       E -6.54677e+01  5.16051e+01 -2.85276e+01
       E -4.29587e+01 -8.40959e+00  5.17989e+01
3
# CELL(abcABC): 1322.94304  1322.94304  1322.94304    90.00000    90.00000    90.00000  Step:        2000  Bead:      28 positions{angstrom}  cell{angstrom}
       E -1.81012e+01 -2.97816e+01  4.44094e+01
       E -5.84157e+01  5.39266e+01 -2.89976e+00
       E -6.08120e+01  2.80018e+01  2.39346e+00
3
# CELL(abcABC): 1322.94304  1322.94304  1322.94304    90.00000    90.00000    90.00000  Step:        2100  Bead:      28 positions{angstrom}  cell{angstrom}
       E  4.70392e+00 -7.53569e+01  1.00804e+01
       E -4.79399e+01  3.80569e+01  1.28213e+01
       E -3.36636e+01  3.49216e+01 -2.98876e+01
3
# CELL(abcABC): 1322.94304  1322.94304  1322.94304    90.00000    90.00000    90.00000  Step:        2200  Bead:      28 positions{angstrom}  cell{angstrom}
       E -1.74361e+01 -6.31082e+01 -1.72398e+01
       E -5.24022e+01  6.73156e+01  1.17003e+01
       E -3.26184e+01  1.88145e+01 -9.68616e+00
3
# CELL(abcABC): 1322.94304  1322.94304  1322.94304    90.00000    90.00000    90.00000  Step:        2300  Bead:      28 positions{angstrom}  cell{angstrom}
       E  2.50724e+00 -6.46016e+01  4.45513e+00
       E -2.99529e+01  6.62248e+01  2.24827e+01
       E -4.59755e+01 -1.08720e+01 -5.10946e+01
3
# CELL(abcABC): 1322.94304  1322.94304  1322.94304    90.00000    90.00000    90.00000  Step:        2400  Bead:      28 positions{angstrom}  cell{angstrom}
       E -3.15384e+01 -3.70851e+01  1.07066e+01
       E -4.64872e+01  6.70503e+01  1.71309e+01
       E -3.35379e+00 -2.82945e+01 -4.92738e+01
3
# CELL(abcABC): 1322.94304  1322.94304  1322.94304    90.00000    90.00000    90.00000  Step:        2500  Bead:      28 positions{angstrom}  cell{angstrom}
       E -2.26306e+01 -5.09491e+01  1.48496e+01
       E -6.57227e+01 -9.25811e+00  6.12621e+00
       E  3.70250e+01 -4.60216e+01  2.72430e+01
3
# CELL(abcABC): 1322.94304  1322.94304  1322.94304    90.00000    90.00000    90.00000  Step:        2600  Bead:      28 positions{angstrom}  cell{angstrom}
       E -4.71209e+01 -2.15415e+00  5.27454e+01
       E -5.45550e+01 -1.94473e+01  3.42758e+01
       E  2.89662e+01 -3.25000e+01  2.43400e+01
3
# CELL(abcABC): 1322.94304  1322.94304  1322.94304    90.00000    90.00000    90.00000  Step:        2700  Bead:      28 positions{angstrom}  cell{angstrom}
       E -3.08996e+01 -7.96580e+01  1.14831e+02
       E -7.27101e+01 -2.65146e+01  3.13409e+01
       E  1.53832e+01 -5.59022e+01  2.85491e+01
3
# CELL(abcABC): 1322.94304  1322.94304  1322.94304    90.00000    90.00000    90.00000  Step:        2800  Bead:      28 positions{angstrom}  cell{angstrom}
       E -4.31153e+01 -4.20335e+01  6.63359e+01
       E -4.29647e+01 -8.35839e+00  2.54519e+01
       E  1.95495e+01 -3.75514e+01  9.00635e+00
3
# CELL(abcABC): 1322.94304  1322.94304  1322.94304    90.00000    90.00000    90.00000  Step:        2900  Bead:      28 positions{angstrom}  cell{angstrom}
       E -4.73649e+01 -7.34262e+01  4.94318e+01
       E -3.59229e+01 -1.25302e+01  3.38555e+01
       E  2.46441e+01 -7.42051e+01  3.45539e+01
3
# CELL(abcABC): 1322.94304  1322.94304  1322.94304    90.00000    90.00000    90.00000  Step:        3000  Bead:      28 positions{angstrom}  cell{angstrom}
       E -8.36440e+01 -5.86870e+01  2.15354e+01
       E -3.91551e+01 -9.91046e+00  6.08243e+01
       E  3.88216e+01 -3.20022e+01 -1.47047e+01
3
# CELL(abcABC): 1322.94304  1322.94304  1322.94304    90.00000    90.00000    90.00000  Step:        3100  Bead:      28 positions{angstrom}  cell{angstrom}
       E -8.38821e+01 -7.40559e+01  2.15488e+00
       E -3.95814e+01 -2.35098e+01  7.27721e+01
       E  4.38104e+01 -7.40656e+00  6.08419e+00
3
# CELL(abcABC): 1322.94304  1322.94304  1322.94304    90.00000    90.00000    90.00000  Step:        3200  Bead:      28 positions{angstrom}  cell{angstrom}
       E -9.56019e+01 -7.45474e+01  3.08505e+01
       E -5.16792e+01  3.45816e+01  4.26363e+01
       E  4.06717e+01 -9.51458e+00  1.79433e+01
3
# CELL(abcABC): 1322.94304  1322.94304  1322.94304    90.00000    90.00000    90.00000  Step:        3300  Bead:      28 positions{angstrom}  cell{angstrom}
       E -9.85676e+01  2.31224e+01  5.95067e+01
       E -7.29814e+01  6.40862e+01  7.03015e+01
       E  3.56747e+01  2.69356e+01  1.48647e+01
3
# CELL(abcABC): 1322.94304  1322.94304  1322.94304    90.00000    90.00000    90.00000  Step:        3400  Bead:      28 positions{angstrom}  cell{angstrom}
       E -1.17413e+02  2.70901e+01  8.94002e+01
       E -5.93354e+01  2.41340e+01  5.59600e+01
       E  3.08690e+01  3.66902e+00  1.88207e+01
3
# CELL(abcABC): 1322.94304  1322.94304  1322.94304    90.00000    90.00000    90.00000  Step:        3500  Bead:      28 positions{angstrom}  cell{angstrom}
       E -9.71192e+01 -1.66812e+01  7.00954e+01
       E -4.51125e+01  8.79639e+00  5.55958e+01
       E  5.60790e+00 -6.76884e+00  2.20272e+01
3
# CELL(abcABC): 1322.94304  1322.94304  1322.94304    90.00000    90.00000    90.00000  Step:        3600  Bead:      28 positions{angstrom}  cell{angstrom}
       E -9.10794e+01 -6.55478e+01  2.63975e+01
       E -7.24789e+00  2.13221e+01  6.00970e+01
       E -6.15429e+01 -3.11237e+01  6.48347e+00
3
# CELL(abcABC): 1322.94304  1322.94304  1322.94304    90.00000    90.00000    90.00000  Step:        3700  Bead:      28 positions{angstrom}  cell{angstrom}
       E -7.98014e+01 -4.84011e+01  1.08697e+01
       E -2.93659e+01  3.41595e+00  2.13630e+01
       E -6.26481e+01 -6.33330e+01  2.66772e+00
3
# CELL(abcABC): 1322.94304  1322.94304  1322.94304    90.00000    90.00000    90.00000  Step:        3800  Bead:      28 positions{angstrom}  cell{angstrom}
       E -5.43643e+01 -8.51178e+00  1.58967e+01
       E -1.09742e+00 -2.00929e+01  2.74585e+01
       E  3.99648e+00 -6.74917e+01 -5.84726e+00
3
# CELL(abcABC): 1322.94304  1322.94304  1322.94304    90.00000    90.00000    90.00000  Step:        3900  Bead:      28 positions{angstrom}  cell{angstrom}
       E -6.18798e+01 -2.06483e+01 -4.33867e+01
       E -4.29507e+01 -1.58469e+01  4.12254e+01
       E -8.50840e+00 -4.54813e+01  1.84742e+01
3
# CELL(abcABC): 1322.94304  1322.94304  1322.94304    90.00000    90.00000    90.00000  Step:        4000  Bead:      28 positions{angstrom}  cell{angstrom}
       E -6.65029e+01 -3.16910e+01 -1.82627e+01
       E -3.16022e+01  3.05919e+00  4.56215e+01
       E -2.22420e+01 -4.07250e+01 -3.16981e+01
3
# CELL(abcABC): 1322.94304  1322.94304  1322.94304    90.00000    90.00000    90.00000  Step:        4100  Bead:      28 positions{angstrom}  cell{angstrom}
       E -6.96938e+01 -2.87271e+01 -8.99138e+01
       E -6.77356e+01  2.11436e+01  9.75750e+00
       E -4.93527e+01 -2.95609e+01  2.28145e+01
3
# CELL(abcABC): 1322.94304  1322.94304  1322.94304    90.00000    90.00000    90.00000  Step:        4200  Bead:      28 positions{angstrom}  cell{angstrom}
       E -6.35926e+01 -1.47986e+00 -9.35440e+01
       E -5.29385e+01  1.91556e+01 -3.48095e+01
       E -2.45313e+01 -1.20043e+01  4.94933e+00
3
# CELL(abcABC): 1322.94304  1322.94304  1322.94304    90.00000    90.00000    90.00000  Step:        4300  Bead:      28 positions{angstrom}  cell{angstrom}
       E -4.08760e+01  6.76034e+00 -6.86933e+01
       E -3.58756e+01  3.02721e+01 -4.07899e+01
       E  2.61447e+01  4.86498e-01 -2.65112e+01
3
# CELL(abcABC): 1322.94304  1322.94304  1322.94304    90.00000    90.00000    90.00000  Step:        4400  Bead:      28 positions{angstrom}  cell{angstrom}
       E -1.16855e+01  2.76073e+01 -4.22352e+01
       E -6.03385e+01  1.25709e+01 -2.38311e+01
       E  1.84394e+01  1.00520e+01  9.91128e+00
3
# CELL(abcABC): 1322.94304  1322.94304  1322.94304    90.00000    90.00000    90.00000  Step:        4500  Bead:      28 positions{angstrom}  cell{angstrom}
       E -8.07785e+01  2.98205e+01 -5.87492e+01
       E -4.33097e+01 -6.82042e+00 -1.48874e+01
       E  2.19525e+01 -2.80883e+01  1.57248e+00
3
# CELL(abcABC): 1322.94304  1322.94304  1322.94304    90.00000    90.00000    90.00000  Step:        4600  Bead:      28 positions{angstrom}  cell{angstrom}
       E -6.54534e+01  3.45585e+01 -3.98652e+01
       E -4.42222e+01  2.19309e+01 -7.95469e+00
       E -2.02206e+00  1.67946e+01  4.03681e+01
3
# CELL(abcABC): 1322.94304  1322.94304  1322.94304    90.00000    90.00000    90.00000  Step:        4700  Bead:      28 positions{angstrom}  cell{angstrom}
       E -6.00756e+01  1.81959e+01 -6.90879e+01
       E -1.13676e+01 -1.06193e+01 -1.48056e+01
       E -8.68885e+00 -2.28379e+01  1.89829e+01
3
# CELL(abcABC): 1322.94304  1322.94304  1322.94304    90.00000    90.00000    90.00000  Step:        4800  Bead:      28 positions{angstrom}  cell{angstrom}
       E -4.33968e+01  6.19534e+01 -1.11095e+02
       E -1.87562e+01 -2.02101e+01 -4.79775e+00
       E -1.50572e+01 -2.88620e+01  1.78080e+01
3
# CELL(abcABC): 1322.94304  1322.94304  1322.94304    90.00000    90.00000    90.00000  Step:        4900  Bead:      28 positions{angstrom}  cell{angstrom}
       E -3.53499e+01  2.30494e+01 -7.31881e+01
       E -1.58870e+01  1.65589e+01 -4.60862e+01
       E  3.54225e+01 -5.44340e+01  2.43467e+01
3
# CELL(abcABC): 1322.94304  1322.94304  1322.94304    90.00000    90.00000    90.00000  Step:        5000  Bead:      28 positions{angstrom}  cell{angstrom}
       E -7.98935e+00  3.44264e+01 -4.19249e+01
       E  5.70022e+00 -2.11607e+00 -4.56209e+01
       E  3.99545e+01 -5.20579e+01 -6.82019e-01
3
# CELL(abcABC): 1322.94304  1322.94304  1322.94304    90.00000    90.00000    90.00000  Step:        5100  Bead:      28 positions{angstrom}  cell{angstrom}
       E -1.36358e+01  4.53156e+01 -1.97317e+01
       E  2.07926e+01  2.32309e+01 -9.65172e-01
       E  3.85519e+01 -2.53304e+01  2.56469e+01
3
# CELL(abcABC): 1322.94304  1322.94304  1322.94304    90.00000    90.00000    90.00000  Step:        5200  Bead:      28 positions{angstrom}  cell{angstrom}
       E -4.59545e+01 -2.30342e+01 -4.62804e+01
       E  1.19126e+01  4.54726e+01 -6.98423e+00
       E  4.15095e+00  4.65796e+00  1.03050e+00
3
# CELL(abcABC): 1322.94304  1322.94304  1322.94304    90.00000    90.00000    90.00000  Step:        5300  Bead:      28 positions{angstrom}  cell{angstrom}
       E  5.18639e+00 -1.19724e+01 -3.87874e+01
       E  5.48779e+00  1.32744e+01 -2.94217e+01
       E -3.27643e+01  1.74213e+01  6.96675e+01
3
# CELL(abcABC): 1322.94304  1322.94304  1322.94304    90.00000    90.00000    90.00000  Step:        5400  Bead:      28 positions{angstrom}  cell{angstrom}
       E -1.02055e+01  5.19062e+00 -1.27032e+01
       E -3.65009e+00  3.59424e+01 -2.98538e+01
       E -1.83937e+01  2.07956e+01  4.20522e+01
3
# CELL(abcABC): 1322.94304  1322.94304  1322.94304    90.00000    90.00000    90.00000  Step:        5500  Bead:      28 positions{angstrom}  cell{angstrom}
       E -1.25672e+01  2.50791e+01  2.39497e-01
       E  2.67276e+01  1.56143e+01 -7.36916e+00
       E  2.47435e+00  4.14716e+01 -1.40291e+01
3
# CELL(abcABC): 1322.94304  1322.94304  1322.94304    90.00000    90.00000    90.00000  Step:        5600  Bead:      28 positions{angstrom}  cell{angstrom}
       E -2.89442e+00  1.10796e+01 -2.54911e+01
       E -8.43336e-01  1.73188e+01 -1.34379e+01
       E  1.65707e+00 -1.58711e+01  6.70160e+00
3
# CELL(abcABC): 1322.94304  1322.94304  1322.94304    90.00000    90.00000    90.00000  Step:        5700  Bead:      28 positions{angstrom}  cell{angstrom}
       E -6.83896e+00  1.46003e+01 -4.33719e+01
       E  2.46312e+01  3.60082e+01  1.20842e+01
       E -2.25642e+01 -1.40657e+01  3.61036e+01
3
# CELL(abcABC): 1322.94304  1322.94304  1322.94304    90.00000    90.00000    90.00000  Step:        5800  Bead:      28 positions{angstrom}  cell{angstrom}
       E -7.84598e+00 -1.70897e+01 -3.99907e+01
       E  9.36134e-02 -5.80615e-01 -2.39924e+01
       E  1.77511e+01 -3.68615e+01 -2.03176e+01
3
# CELL(abcABC): 1322.94304  1322.94304  1322.94304    90.00000    90.00000    90.00000  Step:        5900  Bead:      28 positions{angstrom}  cell{angstrom}
       E -2.32238e+01  1.18421e+00 -9.97156e+00
       E  2.05233e+01  5.13826e+01 -3.07447e+01
       E -7.75628e+00 -4.98081e+01  2.56497e+01
3
# CELL(abcABC): 1322.94304  1322.94304  1322.94304    90.00000    90.00000    90.00000  Step:        6000  Bead:      28 positions{angstrom}  cell{angstrom}
       E -1.41127e+01 -2.67958e+01 -7.81356e+00
       E  1.58265e+01  2.03565e+01 -5.92429e+01
       E  1.37496e+01 -4.37949e+01 -3.18510e+00
3
# CELL(abcABC): 1322.94304  1322.94304  1322.94304    90.00000    90.00000    90.00000  Step:        6100  Bead:      28 positions{angstrom}  cell{angstrom}
       E -2.50456e+01 -6.01653e+01 -1.08943e+01
       E  5.87789e+01 -2.97463e+01 -7.72194e+01
       E  3.55524e+01 -4.32037e+01  6.68303e+00
3
# CELL(abcABC): 1322.94304  1322.94304  1322.94304    90.00000    90.00000    90.00000  Step:        6200  Bead:      28 positions{angstrom}  cell{angstrom}
       E -5.90016e+00 -6.22376e+01 -3.37128e+01
       E  5.43704e+01  9.01197e+00 -3.84600e+01
       E  5.55800e+00 -6.74231e+01  2.52261e+01
3
# CELL(abcABC): 1322.94304  1322.94304  1322.94304    90.00000    90.00000    90.00000  Step:        6300  Bead:      28 positions{angstrom}  cell{angstrom}
       E  1.08837e+01 -7.78592e+01 -7.85219e+01
       E  7.39070e+01 -8.77626e+00 -3.61813e+01
       E  3.92187e+00 -6.58304e+01  1.16494e+01
3
# CELL(abcABC): 1322.94304  1322.94304  1322.94304    90.00000    90.00000    90.00000  Step:        6400  Bead:      28 positions{angstrom}  cell{angstrom}
       E  3.05071e+01 -8.95912e+01 -1.01995e+02
       E  2.20063e+01 -1.07320e+01 -5.21056e+01
       E  2.87662e+01 -5.98800e+01  2.80204e+01
3
# CELL(abcABC): 1322.94304  1322.94304  1322.94304    90.00000    90.00000    90.00000  Step:        6500  Bead:      28 positions{angstrom}  cell{angstrom}
       E  2.77201e+01 -1.14355e+02 -1.03686e+02
       E -1.23217e+01  4.89674e+01 -4.66237e+01
       E  1.13921e+01 -1.05503e+01 -2.60576e+01
3
# CELL(abcABC): 1322.94304  1322.94304  1322.94304    90.00000    90.00000    90.00000  Step:        6600  Bead:      28 positions{angstrom}  cell{angstrom}
       E  1.71392e+01 -1.10949e+02 -1.04724e+02
       E -5.00010e-01 -3.78722e+00 -4.45449e+01
       E  2.75015e+01 -2.24594e+01  7.28131e+00
3
# CELL(abcABC): 1322.94304  1322.94304  1322.94304    90.00000    90.00000    90.00000  Step:        6700  Bead:      28 positions{angstrom}  cell{angstrom}
       E  4.17186e+01 -9.50198e+01 -1.06320e+02
       E  4.42539e+00 -7.03919e-01 -2.91388e+01
       E  1.78451e+01 -1.82554e+01 -8.57901e+00
3
# CELL(abcABC): 1322.94304  1322.94304  1322.94304    90.00000    90.00000    90.00000  Step:        6800  Bead:      28 positions{angstrom}  cell{angstrom}
       E  3.00017e+01 -1.14076e+02 -9.57386e+01
       E -1.54593e+01  2.04124e+01  1.09092e+01
       E  2.88610e+01 -6.48995e+01  5.15398e+00
3
# CELL(abcABC): 1322.94304  1322.94304  1322.94304    90.00000    90.00000    90.00000  Step:        6900  Bead:      28 positions{angstrom}  cell{angstrom}
       E  1.75798e+01 -9.71123e+01 -4.14168e+01
       E  1.82754e+01  1.29532e+00 -8.57834e+00
       E  2.58241e+01 -4.51224e+01 -2.54679e+00
3
# CELL(abcABC): 1322.94304  1322.94304  1322.94304    90.00000    90.00000    90.00000  Step:        7000  Bead:      28 positions{angstrom}  cell{angstrom}
       E  3.98313e+01 -4.91381e+01 -4.09974e+01
       E  4.37045e+01  5.49722e+01 -1.69673e+01
       E -8.69257e+00 -1.87093e+01 -1.34077e+01
3
# CELL(abcABC): 1322.94304  1322.94304  1322.94304    90.00000    90.00000    90.00000  Step:        7100  Bead:      28 positions{angstrom}  cell{angstrom}
       E -2.83764e+01 -1.30274e+01 -3.55198e+01
       E  3.64568e+01  9.77939e+01  1.47081e+01
       E  2.63367e+01 -2.01278e+01 -1.75759e+01
3
# CELL(abcABC): 1322.94304  1322.94304  1322.94304    90.00000    90.00000    90.00000  Step:        7200  Bead:      28 positions{angstrom}  cell{angstrom}
       E -2.29791e+01 -1.65043e+01 -6.22036e+01
       E  9.39767e+00  5.04348e+01  2.61960e+00
       E  3.09573e+00  5.93818e+00 -1.40492e+00
3
# CELL(abcABC): 1322.94304  1322.94304  1322.94304    90.00000    90.00000    90.00000  Step:        7300  Bead:      28 positions{angstrom}  cell{angstrom}
       E  3.28132e+01 -3.32699e+00 -5.28917e+01
       E -1.87985e+01  3.25658e+01 -2.39264e+01
       E -4.17811e-01  2.60365e+01  9.26362e+00
3
# CELL(abcABC): 1322.94304  1322.94304  1322.94304    90.00000    90.00000    90.00000  Step:        7400  Bead:      28 positions{angstrom}  cell{angstrom}
       E -6.82601e-01 -7.66443e+00 -3.70964e+01
       E  2.16492e+01  2.72298e+01 -4.00431e+01
       E  3.75703e+01  1.13422e+01  7.17033e+00
3
# CELL(abcABC): 1322.94304  1322.94304  1322.94304    90.00000    90.00000    90.00000  Step:        7500  Bead:      28 positions{angstrom}  cell{angstrom}
       E -1.77711e+01 -4.10415e+01  5.20843e-02
       E  3.64052e+01  2.28971e+01 -1.75243e+01
       E  9.79417e+00  1.57413e+01  1.32873e+01
3
# CELL(abcABC): 1322.94304  1322.94304  1322.94304    90.00000    90.00000    90.00000  Step:        7600  Bead:      28 positions{angstrom}  cell{angstrom}
       E -3.45568e+00 -4.79041e+01 -2.48651e+01
       E -2.52238e+01  2.59837e+01  7.20409e+00
       E -2.79834e+00 -6.86470e+00 -4.44805e+01
3
# CELL(abcABC): 1322.94304  1322.94304  1322.94304    90.00000    90.00000    90.00000  Step:        7700  Bead:      28 positions{angstrom}  cell{angstrom}
       E  7.39725e+00 -4.10121e+01 -4.52627e+01
       E  4.24641e+01 -4.75968e+00 -9.73786e+00
       E  7.79666e+00 -3.40155e+01 -5.99759e+01
3
# CELL(abcABC): 1322.94304  1322.94304  1322.94304    90.00000    90.00000    90.00000  Step:        7800  Bead:      28 positions{angstrom}  cell{angstrom}
       E  2.32260e+01 -4.45969e+01 -9.31204e+00
       E  4.12133e+01 -1.58649e+01 -5.39639e+01
       E  2.13441e+01 -5.46858e+01 -3.42065e+01
3
# CELL(abcABC): 1322.94304  1322.94304  1322.94304    90.00000    90.00000    90.00000  Step:        7900  Bead:      28 positions{angstrom}  cell{angstrom}
       E  4.28924e+01 -1.18443e+01 -2.67692e+01
       E  2.58619e+01 -2.51619e+01 -4.10652e+01
       E  3.26005e+01  2.99282e+00 -6.54219e+01
3
# CELL(abcABC): 1322.94304  1322.94304  1322.94304    90.00000    90.00000    90.00000  Step:        8000  Bead:      28 positions{angstrom}  cell{angstrom}
       E  5.14288e+01 -2.00656e+00 -7.29161e+01
       E  1.32585e+01  1.35246e+00 -8.61206e+01
       E  1.24653e+01 -2.32696e+01  5.11457e+00
3
# CELL(abcABC): 1322.94304  1322.94304  1322.94304    90.00000    90.00000    90.00000  Step:        8100  Bead:      28 positions{angstrom}  cell{angstrom}
       E  3.13263e+01  3.31879e+01 -4.79418e+01
       E -1.10467e+01  1.82665e+01 -4.57994e+01
       E -8.38415e+00 -3.49291e+01  1.17420e+01
3
# CELL(abcABC): 1322.94304  1322.94304  1322.94304    90.00000    90.00000    90.00000  Step:        8200  Bead:      28 positions{angstrom}  cell{angstrom}
       E  2.80985e+01  5.35105e+01  2.64941e+01
       E  2.82119e+01  5.88375e+01 -1.85464e-01
       E -4.49730e+01  9.58871e-02  1.00910e+01
3
# CELL(abcABC): 1322.94304  1322.94304  1322.94304    90.00000    90.00000    90.00000  Step:        8300  Bead:      28 positions{angstrom}  cell{angstrom}
       E  4.14281e+01  6.22800e+01 -3.02373e+01
       E  2.50295e+01  2.06584e+01 -2.87648e+00
       E  3.47017e+00 -5.05368e+01  1.76663e+01
3
# CELL(abcABC): 1322.94304  1322.94304  1322.94304    90.00000    90.00000    90.00000  Step:        8400  Bead:      28 positions{angstrom}  cell{angstrom}
       E  2.97185e+01 -1.95721e+01 -3.47706e+00
       E  1.39123e+01  3.39183e+01  3.17631e+01
       E -2.88323e+01 -3.63194e+01  6.17769e+01
3
# CELL(abcABC): 1322.94304  1322.94304  1322.94304    90.00000    90.00000    90.00000  Step:        8500  Bead:      28 positions{angstrom}  cell{angstrom}
       E  1.79091e+01  6.10204e+00 -4.17423e+01
       E  7.62476e+00  1.29470e+01  4.55062e+00
       E  1.13551e+01 -4.11531e+01  4.20688e+01
3
# CELL(abcABC): 1322.94304  1322.94304  1322.94304    90.00000    90.00000    90.00000  Step:        8600  Bead:      28 positions{angstrom}  cell{angstrom}
       E -1.63504e+01 -7.30514e+00 -4.72940e+01
       E  2.08067e+01  7.01942e+00  2.74284e+01
       E  5.84253e+01  2.21913e+01  3.21461e+01
3
# CELL(abcABC): 1322.94304  1322.94304  1322.94304    90.00000    90.00000    90.00000  Step:        8700  Bead:      28 positions{angstrom}  cell{angstrom}
       E -5.28718e+01  1.86110e+01 -1.26007e+01
       E  3.87001e+01  6.33064e+00  2.96337e+01
       E  6.53514e+01 -2.05786e+01  2.41321e+01
3
# CELL(abcABC): 1322.94304  1322.94304  1322.94304    90.00000    90.00000    90.00000  Step:        8800  Bead:      28 positions{angstrom}  cell{angstrom}
       E -3.60083e+01  2.57686e+00 -3.09209e+01
       E  4.06300e+00 -2.17947e+01  5.04517e+01
       E  2.55605e+01 -6.55800e+01  2.70026e+01
3
# CELL(abcABC): 1322.94304  1322.94304  1322.94304    90.00000    90.00000    90.00000  Step:        8900  Bead:      28 positions{angstrom}  cell{angstrom}
       E -4.51556e+01  5.21284e+01  2.05862e+01
       E -1.52596e+01 -3.66907e+01  3.42367e+01
       E  1.55966e+01 -7.28833e+01 -5.62938e+00
3
# CELL(abcABC): 1322.94304  1322.94304  1322.94304    90.00000    90.00000    90.00000  Step:        9000  Bead:      28 positions{angstrom}  cell{angstrom}
       E -1.10082e+01  3.53022e+01  2.26023e+01
       E -2.19131e+01 -5.21384e+01  5.55759e+01
       E  5.41862e+00 -5.08657e+01 -7.21049e+00
3
# CELL(abcABC): 1322.94304  1322.94304  1322.94304    90.00000    90.00000    90.00000  Step:        9100  Bead:      28 positions{angstrom}  cell{angstrom}
       E -3.84874e+00  3.88013e+01  2.40763e+01
       E -2.87876e+01  4.33534e+00  5.29993e+01
       E  3.17842e+01 -8.88730e+01 -6.46748e+00
3
# CELL(abcABC): 1322.94304  1322.94304  1322.94304    90.00000    90.00000    90.00000  Step:        9200  Bead:      28 positions{angstrom}  cell{angstrom}
       E -1.16845e+01  4.15571e+01 -3.63678e+01
       E -2.04968e+01  1.12567e+01  3.01123e+01
       E  4.32701e+01 -4.60324e+01  5.50283e+00
3
# CELL(abcABC): 1322.94304  1322.94304  1322.94304    90.00000    90.00000    90.00000  Step:        9300  Bead:      28 positions{angstrom}  cell{angstrom}
       E  4.93760e+01  5.47280e+00 -5.20910e+01
       E  2.84814e+00 -3.45155e+01  6.26370e+01
       E  4.42594e+01 -1.44588e+01 -1.75585e+00
3
# CELL(abcABC): 1322.94304  1322.94304  1322.94304    90.00000    90.00000    90.00000  Step:        9400  Bead:      28 positions{angstrom}  cell{angstrom}
       E  6.29604e+01  4.32268e+01 -4.98916e+01
       E -1.25421e+01 -3.83862e+01  5.12523e+01
       E  4.09040e+01 -1.45932e+00 -1.51855e+01
3
# CELL(abcABC): 1322.94304  1322.94304  1322.94304    90.00000    90.00000    90.00000  Step:        9500  Bead:      28 positions{angstrom}  cell{angstrom}
       E  3.83406e+01  7.30464e+00 -3.55591e+01
       E  2.68529e+01 -2.67012e+01  2.73806e+00
       E  7.33063e+00  1.32771e+00 -3.47500e+01
3
# CELL(abcABC): 1322.94304  1322.94304  1322.94304    90.00000    90.00000    90.00000  Step:        9600  Bead:      28 positions{angstrom}  cell{angstrom}
       E  7.41119e+00 -2.61886e+01 -6.18615e+01
       E  4.50340e+01 -3.25425e+01  8.97126e+00
       E  1.09098e+01 -1.01003e+01 -1.76984e+00
3
# CELL(abcABC): 1322.94304  1322.94304  1322.94304    90.00000    90.00000    90.00000  Step:        9700  Bead:      28 positions{angstrom}  cell{angstrom}
       E -1.94131e+01 -5.01166e+01 -6.82003e+01
       E  6.24335e+01 -7.14680e+01 -3.02352e+01
       E -4.33337e+01 -3.31251e+00 -8.69525e+00
3
# CELL(abcABC): 1322.94304  1322.94304  1322.94304    90.00000    90.00000    90.00000  Step:        9800  Bead:      28 positions{angstrom}  cell{angstrom}
       E -2.81840e+01 -4.90066e+01 -4.99363e+01
       E  2.99221e+01 -5.10556e+01 -9.34782e+00
       E -4.46194e+01 -1.66215e+01 -1.19376e+01
3