3
# CELL(abcABC): 1322.94304  1322.94304  1322.94304    90.00000    90.00000    90.00000  Step:           0  Bead:       5 positions{angstrom}  cell{angstrom}
       E  0.00000e+00  0.00000e+00  0.00000e+00
       E  0.00000e+00  0.00000e+00  0.00000e+00
       E  0.00000e+00  0.00000e+00  0.00000e+00
3
# CELL(abcABC): 1322.94304  1322.94304  1322.94304    90.00000    90.00000    90.00000  Step:         100  Bead:       5 positions{angstrom}  cell{angstrom}
       E -3.25251e+01 -3.74580e+01  5.59041e+00
       E  1.19796e-01  8.71095e+00  1.46029e+00
       E -2.09306e+01  9.20826e-01  4.13530e+00
3
# CELL(abcABC): 1322.94304  1322.94304  1322.94304    90.00000    90.00000    90.00000  Step:         200  Bead:       5 positions{angstrom}  cell{angstrom}
       E -3.11497e+01 -1.07006e+01  4.27410e-01
       E  2.12836e+01  1.94745e+01 -2.45528e+01
       E -3.63619e+01  4.91042e+00  2.75162e+01
3
# CELL(abcABC): 1322.94304  1322.94304  1322.94304    90.00000    90.00000    90.00000  Step:         300  Bead:       5 positions{angstrom}  cell{angstrom}
       E  3.74867e+00 -3.08485e+01 -3.66903e+01
       E -1.01780e+01  2.81707e+00 -4.08780e+01
       E -2.06505e+01  1.66531e+01  3.79531e+01
3
# CELL(abcABC): 1322.94304  1322.94304  1322.94304    90.00000    90.00000    90.00000  Step:         400  Bead:       5 positions{angstrom}  cell{angstrom}
       E  2.17072e+01  2.80654e+01  3.66099e+00
       E -5.21825e+00  1.01048e+01 -7.65247e+00
       E -1.16911e+01  2.89040e+01  4.67553e+01
3
# CELL(abcABC): 1322.94304  1322.94304  1322.94304    90.00000    90.00000    90.00000  Step:         500  Bead:       5 positions{angstrom}  cell{angstrom}
       E -3.27452e+00  7.65395e+00 -3.74436e+01
       E -1.42184e+01 -4.10112e+00  2.20481e+01
       E -6.37409e+00  2.53858e+01 -1.52620e+01
3
# CELL(abcABC): 1322.94304  1322.94304  1322.94304    90.00000    90.00000    90.00000  Step:         600  Bead:       5 positions{angstrom}  cell{angstrom}
       E -1.52214e+01  1.89498e+01 -4.86571e+01
       E  6.78391e+00 -1.44512e+01  3.09517e+01
       E -3.34138e+01  8.34331e+00  2.49962e+01
3
# CELL(abcABC): 1322.94304  1322.94304  1322.94304    90.00000    90.00000    90.00000  Step:         700  Bead:       5 positions{angstrom}  cell{angstrom}
       E -1.13621e+00  1.50085e+01 -2.07870e+01
       E  4.86964e+00  1.13496e+01  3.69245e+00
       E -2.96611e+01  5.33252e+00  3.14017e+01
3
# CELL(abcABC): 1322.94304  1322.94304  1322.94304    90.00000    90.00000    90.00000  Step:         800  Bead:       5 positions{angstrom}  cell{angstrom}
       E -3.03540e+01 -1.92449e+00 -2.21254e+01
       E -6.78244e+00  3.47714e+01 -3.02392e+01
       E -5.87825e+01  2.29162e+01  6.09221e+01
3
# CELL(abcABC): 1322.94304  1322.94304  1322.94304    90.00000    90.00000    90.00000  Step:         900  Bead:       5 positions{angstrom}  cell{angstrom}
       E  1.08765e+01 -2.61566e+01  1.12780e+01
       E  1.44846e+01  8.95244e+00 -9.69192e+00
       E -1.36792e+01  3.17616e+01  8.03859e+01
3
# CELL(abcABC): 1322.94304  1322.94304  1322.94304    90.00000    90.00000    90.00000  Step:        1000  Bead:       5 positions{angstrom}  cell{angstrom}
       E -5.13915e+01 -1.07070e+00 -4.38821e+01
       E  8.64957e+00 -5.09630e+00 -6.61803e+00
       E  3.69183e+00  2.50928e+01  6.67980e+01
3
# CELL(abcABC): 1322.94304  1322.94304  1322.94304    90.00000    90.00000    90.00000  Step:        1100  Bead:       5 positions{angstrom}  cell{angstrom}
       E -7.20752e+00  8.57456e+00 -3.15257e+01
       E  4.83108e+01 -1.49488e+01 -4.18976e+01
       E -3.37318e+01  9.19755e+00  1.70223e+01
3
# CELL(abcABC): 1322.94304  1322.94304  1322.94304    90.00000    90.00000    90.00000  Step:        1200  Bead:       5 positions{angstrom}  cell{angstrom}
       E  1.50894e+01 -4.11639e+00 -4.95143e+01
       E  3.62848e+01 -3.18408e+01 -8.47496e+01
       E -3.00547e+01  4.97278e+01  2.19963e+01
3
# CELL(abcABC): 1322.94304  1322.94304  1322.94304    90.00000    90.00000    90.00000  Step:        1300  Bead:       5 positions{angstrom}  cell{angstrom}
       E  8.97983e+00 -1.54236e+01 -6.59526e+01
       E  6.50093e+00 -6.06542e+01 -4.29928e+01
       E -6.60575e+01  5.38716e+01  1.38679e+01
3
# CELL(abcABC): 1322.94304  1322.94304  1322.94304    90.00000    90.00000    90.00000  Step:        1400  Bead:       5 positions{angstrom}  cell{angstrom}
       E -3.42629e+01 -1.60106e+00 -7.32723e+01
       E  4.36941e+00  2.30322e+01 -3.29068e+01
       E -6.25582e+01  6.45551e+00  2.29250e+01
3
# CELL(abcABC): 1322.94304  1322.94304  1322.94304    90.00000    90.00000    90.00000  Step:        1500  Bead:       5 positions{angstrom}  cell{angstrom}
       E -4.94654e+01  1.55441e+00 -6.63897e+01
       E  2.23901e+01  4.33891e+00  1.35565e+01
       E -6.25716e+01  3.20352e+01  7.44908e+00
3
# CELL(abcABC): 1322.94304  1322.94304  1322.94304    90.00000    90.00000    90.00000  Step:        1600  Bead:       5 positions{angstrom}  cell{angstrom}
       E -2.91575e+01  4.37744e+01 -3.30255e+01
       E  2.25773e+01  2.60324e+01  3.59625e+01
       E -4.08036e+01  3.82718e+01 -2.66294e+01
3
# CELL(abcABC): 1322.94304  1322.94304  1322.94304    90.00000    90.00000    90.00000  Step:        1700  Bead:       5 positions{angstrom}  cell{angstrom}
       E -8.61247e+00  3.57965e+01 -1.97213e+01
       E -1.07698e+00  3.58248e+01  2.89800e+01
       E -3.42972e+01  6.33369e+01  9.79218e+00
3
# CELL(abcABC): 1322.94304  1322.94304  1322.94304    90.00000    90.00000    90.00000  Step:        1800  Bead:       5 positions{angstrom}  cell{angstrom}
       E -2.75576e+01  4.48103e+01  1.02877e+01
       E -1.35334e+01  2.74076e+01  2.70335e+01
       E -8.02169e+01  5.78353e+01  4.16677e+01
3
# CELL(abcABC): 1322.94304  1322.94304  1322.94304    90.00000    90.00000    90.00000  Step:        1900  Bead:       5 positions{angstrom}  cell{angstrom}
       E -2.46945e+01  2.71711e+01  3.61351e+01
       E -6.28632e+01 -9.11472e+00  2.98255e+01
       E -8.62339e+01  5.93089e+01  3.27993e+01
3
# CELL(abcABC): 1322.94304  1322.94304  1322.94304    90.00000    90.00000    90.00000  Step:        2000  Bead:       5 positions{angstrom}  cell{angstrom}
       E  1.31510e+01 -1.47459e+00  3.79011e+01
       E -4.80697e+01  2.09308e+01  5.01716e+01
       E -7.90077e+01  4.98076e+01  2.37984e+01
3
# CELL(abcABC): 1322.94304  1322.94304  1322.94304    90.00000    90.00000    90.00000  Step:        2100  Bead:       5 positions{angstrom}  cell{angstrom}
       E -1.46391e+01 -2.49580e+01  4.04855e+01
       E -3.45486e+01  3.14824e+00  1.41991e+01
       E -7.05430e+01  6.26352e+01 -7.66330e+00
3
# CELL(abcABC): 1322.94304  1322.94304  1322.94304    90.00000    90.00000    90.00000  Step:        2200  Bead:       5 positions{angstrom}  cell{angstrom}
       E  2.57623e-01 -5.69006e+01  4.37501e+01
       E -4.70869e+01 -2.11407e+01 -2.64701e+01
       E -4.45687e+01  4.89105e+01  3.53155e+01
3
# CELL(abcABC): 1322.94304  1322.94304  1322.94304    90.00000    90.00000    90.00000  Step:        2300  Bead:       5 positions{angstrom}  cell{angstrom}
       E  1.11523e+01 -7.53453e+01  2.64468e+01
       E  5.32831e+00 -4.97706e+01 -1.47925e+01
       E -3.67693e+01  6.85307e+01  2.19045e+01
3
# CELL(abcABC): 1322.94304  1322.94304  1322.94304    90.00000    90.00000    90.00000  Step:        2400  Bead:       5 positions{angstrom}  cell{angstrom}
       E -6.59434e+00 -6.05451e+01  3.35528e+01
       E  3.14271e+01 -3.54498e+01 -7.29846e+00
       E -8.66331e+00  2.59664e+01  3.96390e+01
3
# CELL(abcABC): 1322.94304  1322.94304  1322.94304    90.00000    90.00000    90.00000  Step:        2500  Bead:       5 positions{angstrom}  cell{angstrom}
       E -6.74883e+00 -2.41491e+01  5.47032e+01
       E  5.36068e+00 -1.75924e+01 -3.76156e+01
       E -3.09870e+01 -3.13689e+01  5.72259e+01
3
# CELL(abcABC): 1322.94304  1322.94304  1322.94304    90.00000    90.00000    90.00000  Step:        2600  Bead:       5 positions{angstrom}  cell{angstrom}
       E  2.18472e+01 -5.00280e+01  9.04824e+01
       E -5.34274e+00 -3.49165e+01 -4.95639e+01
       E -1.35727e+01 -1.66189e+01  5.28404e+01
3
# CELL(abcABC): 1322.94304  1322.94304  1322.94304    90.00000    90.00000    90.00000  Step:        2700  Bead:       5 positions{angstrom}  cell{angstrom}
       E -9.27624e-01 -5.16490e+01  8.36128e+01
       E -4.01504e+01 -3.04582e+01 -1.13457e+01
       E -4.34754e+01 -2.61916e+01  3.59580e+01
3
# CELL(abcABC): 1322.94304  1322.94304  1322.94304    90.00000    90.00000    90.00000  Step:        2800  Bead:       5 positions{angstrom}  cell{angstrom}
       E -4.48549e+01 -5.10342e+01  1.44012e+01
       E  1.69615e+01 -3.01641e+01 -2.91853e+01
       E -6.11596e+00 -3.83488e+00  6.54021e+00
3
# CELL(abcABC): 1322.94304  1322.94304  1322.94304    90.00000    90.00000    90.00000  Step:        2900  Bead:       5 positions{angstrom}  cell{angstrom}
       E -6.85635e+01 -7.56707e+01 -1.38881e+01
       E  1.85679e+01 -4.68345e+01 -6.46641e+00
       E  1.41929e+01 -3.65917e+00  2.25855e+01
3
# CELL(abcABC): 1322.94304  1322.94304  1322.94304    90.00000    90.00000    90.00000  Step:        3000  Bead:       5 positions{angstrom}  cell{angstrom}
       E -4.09816e+01 -5.99390e+01 -2.55313e+01
       E  1.62738e+01 -4.82853e+01  1.51563e+01
       E  9.72046e+00  1.78116e+01  1.50708e+01
3
# CELL(abcABC): 1322.94304  1322.94304  1322.94304    90.00000    90.00000    90.00000  Step:        3100  Bead:       5 positions{angstrom}  cell{angstrom}
       E -5.69251e+01 -5.51943e+01  3.25194e+01
       E  2.64353e+01 -6.68578e+01  4.43404e+01
       E -2.58908e+01  2.77016e+01  8.65111e+00
3
# CELL(abcABC): 1322.94304  1322.94304  1322.94304    90.00000    90.00000    90.00000  Step:        3200  Bead:       5 positions{angstrom}  cell{angstrom}
       E -6.87084e+01 -8.34692e+00  6.52767e+01
       E -1.11087e+01 -5.20991e+01  3.09127e+01
       E -5.30045e+00  5.30810e+01  1.84427e+01
3
# CELL(abcABC): 1322.94304  1322.94304  1322.94304    90.00000    90.00000    90.00000  Step:        3300  Bead:       5 positions{angstrom}  cell{angstrom}
       E -9.28401e+01 -2.13266e+01  4.17324e+01
       E  4.46793e+00 -1.46278e+01  5.16059e+01
       E -1.47182e+01  4.15118e+01  4.38121e+01
3
# CELL(abcABC): 1322.94304  1322.94304  1322.94304    90.00000    90.00000    90.00000  Step:        3400  Bead:       5 positions{angstrom}  cell{angstrom}
       E -7.16608e+01 -9.61451e+00  4.14607e+01
       E -9.04489e+00 -4.78396e+01  3.50508e+01
       E -5.17763e+01  5.19700e+01  7.66251e+01
3
# CELL(abcABC): 1322.94304  1322.94304  1322.94304    90.00000    90.00000    90.00000  Step:        3500  Bead:       5 positions{angstrom}  cell{angstrom}
       E -8.23954e+01 -2.55606e+01  3.12630e+01
       E  6.71929e+00 -4.15891e+01  3.34192e+01
       E -6.55653e+01  4.12717e+01  8.01814e+01
3
# CELL(abcABC): 1322.94304  1322.94304  1322.94304    90.00000    90.00000    90.00000  Step:        3600  Bead:       5 positions{angstrom}  cell{angstrom}
       E -7.96933e+01 -3.48434e+01  1.34166e+01
       E  2.89266e+01 -2.47821e+01  3.11766e-01
       E -9.65342e+01  2.77948e+01  4.27090e+01
3
# CELL(abcABC): 1322.94304  1322.94304  1322.94304    90.00000    90.00000    90.00000  Step:        3700  Bead:       5 positions{angstrom}  cell{angstrom}
       E -7.30637e+01 -4.70731e+01 -2.74512e+01
       E -1.11015e+00 -1.71500e+01  1.07681e+01
       E -4.75465e+01  4.01792e+00  1.32128e+01
3
# CELL(abcABC): 1322.94304  1322.94304  1322.94304    90.00000    90.00000    90.00000  Step:        3800  Bead:       5 positions{angstrom}  cell{angstrom}
       E -6.05566e+01 -2.91553e+01 -4.44431e+01
       E -4.19134e+01 -3.02610e+01 -1.48472e+01
       E -2.23477e+01 -2.67118e-01 -1.91195e+01
3
# CELL(abcABC): 1322.94304  1322.94304  1322.94304    90.00000    90.00000    90.00000  Step:        3900  Bead:       5 positions{angstrom}  cell{angstrom}
       E -5.61687e+01 -2.26142e+01 -5.23585e+00
       E -2.94090e+01 -8.79382e+00 -3.84695e+01
       E -1.88754e+01 -4.10415e+01  9.42537e+00
3
# CELL(abcABC): 1322.94304  1322.94304  1322.94304    90.00000    90.00000    90.00000  Step:        4000  Bead:       5 positions{angstrom}  cell{angstrom}
       E -4.87366e+01 -2.15926e+01 -2.21115e+01
       E -7.54803e+01 -7.46867e+00  1.90456e+01
       E -3.71157e+01  1.45395e+00 -2.84017e+01
3
# CELL(abcABC): 1322.94304  1322.94304  1322.94304    90.00000    90.00000    90.00000  Step:        4100  Bead:       5 positions{angstrom}  cell{angstrom}
       E -7.07099e+01  3.23476e+01 -6.18780e+01
       E -5.77416e+01  4.37020e+01  4.55298e+00
       E -5.09359e+01  5.30275e+01  4.75753e+01
3
# CELL(abcABC): 1322.94304  1322.94304  1322.94304    90.00000    90.00000    90.00000  Step:        4200  Bead:       5 positions{angstrom}  cell{angstrom}
       E -8.16079e+00  3.12329e+01 -5.22897e+01
       E -6.72216e+01  2.14810e+01 -4.55011e+00
       E -6.94645e+01  3.31884e+01  2.99173e+01
3
# CELL(abcABC): 1322.94304  1322.94304  1322.94304    90.00000    90.00000    90.00000  Step:        4300  Bead:       5 positions{angstrom}  cell{angstrom}
       E -1.37856e+01  1.72968e+01 -3.50362e+01
       E -6.71607e+01 -8.63801e+00  1.04887e+01
       E -6.15580e+01 -1.50638e+00  2.46913e+01
3
# CELL(abcABC): 1322.94304  1322.94304  1322.94304    90.00000    90.00000    90.00000  Step:        4400  Bead:       5 positions{angstrom}  cell{angstrom}
       E -1.05979e+01  2.31021e+01 -3.06277e+01
       E -9.40234e+01  4.53144e+01 -2.59839e+01
       E -6.06641e+01  2.31373e-01  2.14606e+01
3
# CELL(abcABC): 1322.94304  1322.94304  1322.94304    90.00000    90.00000    90.00000  Step:        4500  Bead:       5 positions{angstrom}  cell{angstrom}
       E -1.87943e+01  2.91997e+01  5.05742e+00
       E -5.38330e+01  8.21498e+01 -3.42601e+01
       E -3.85977e+01 -4.21594e+00  7.60972e+00
3
# CELL(abcABC): 1322.94304  1322.94304  1322.94304    90.00000    90.00000    90.00000  Step:        4600  Bead:       5 positions{angstrom}  cell{angstrom}
       E  3.27958e+01  4.66163e+01 -1.49669e+01
       E -8.46617e+01  9.85221e+00 -4.12295e+01
       E -4.62262e+01  1.18799e+01  3.11178e+01
3
# CELL(abcABC): 1322.94304  1322.94304  1322.94304    90.00000    90.00000    90.00000  Step:        4700  Bead:       5 positions{angstrom}  cell{angstrom}
       E  2.69765e+01  3.73908e+01 -1.23501e+01
       E -7.32718e+01  3.43258e+01 -4.63551e+01
       E -2.65627e+01  5.93858e+01 -8.56645e+00
3
# CELL(abcABC): 1322.94304  1322.94304  1322.94304    90.00000    90.00000    90.00000  Step:        4800  Bead:       5 positions{angstrom}  cell{angstrom}
       E  2.42050e+01  4.52670e+01  1.72909e+01
       E -7.13085e+01  1.84651e+01 -5.51525e+01
       E  2.31907e+00  2.37816e+01 -6.18524e+01
3
# CELL(abcABC): 1322.94304  1322.94304  1322.94304    90.00000    90.00000    90.00000  Step:        4900  Bead:       5 positions{angstrom}  cell{angstrom}
       E  4.53167e+01  1.09394e+01 -3.29774e+00
       E -7.46182e+01  1.23090e+01 -5.37735e+01
       E -1.36947e+01  4.15736e+01 -5.89514e+01
3
# CELL(abcABC): 1322.94304  1322.94304  1322.94304    90.00000    90.00000    90.00000  Step:        5000  Bead:       5 positions{angstrom}  cell{angstrom}
       E  4.23211e+01 -1.44817e+01  5.30053e+01
       E -2.60390e+01 -1.71632e+01 -2.79842e+01
       E -1.66875e+01  1.14552e+01 -6.04696e+01
3
# CELL(abcABC): 1322.94304  1322.94304  1322.94304    90.00000    90.00000    90.00000  Step:        5100  Bead:       5 positions{angstrom}  cell{angstrom}
       E -1.41864e+01 -4.26587e+00  3.75302e+01
       E -2.23031e+01 -2.24976e+00  4.41806e+00
       E  1.52732e+01 -3.08405e+01 -1.96016e+01
3
# CELL(abcABC): 1322.94304  1322.94304  1322.94304    90.00000    90.00000    90.00000  Step:        5200  Bead:       5 positions{angstrom}  cell{angstrom}
       E -3.78496e+00  9.77676e+00  1.59889e+01
       E  2.74058e-01  4.66219e+01 -1.37982e+01
       E  4.53691e+00  1.44948e+01 -2.61601e+00
3
# CELL(abcABC): 1322.94304  1322.94304  1322.94304    90.00000    90.00000    90.00000  Step:        5300  Bead:       5 positions{angstrom}  cell{angstrom}
       E  1.83063e+00  1.64691e+01  5.89614e+01
       E  1.21585e+01  5.73383e+01 -3.83237e+01
       E -6.83619e+00  3.18177e+01  2.55862e+01
3
# CELL(abcABC): 1322.94304  1322.94304  1322.94304    90.00000    90.00000    90.00000  Step:        5400  Bead:       5 positions{angstrom}  cell{angstrom}
       E -2.37756e+00  2.07533e-01  7.30555e+01
       E -7.06429e+00 -8.97117e+00 -4.34937e+01
       E -2.30201e+01  3.40392e+01  3.47556e+01
3
# CELL(abcABC): 1322.94304  1322.94304  1322.94304    90.00000    90.00000    90.00000  Step:        5500  Bead:       5 positions{angstrom}  cell{angstrom}
       E -1.03199e+01  2.37100e+01  5.22947e+01
       E -1.11444e+01  2.53006e+01 -1.42969e+01
       E -1.46432e+01  9.78644e+00  1.40063e+01
3
# CELL(abcABC): 1322.94304  1322.94304  1322.94304    90.00000    90.00000    90.00000  Step:        5600  Bead:       5 positions{angstrom}  cell{angstrom}
       E -5.77071e+00  2.68213e+01  2.63433e+01
       E  1.09513e+01  4.12611e+01 -2.94895e+01
       E -8.16425e+00  1.97227e+01  3.14116e+01
3
# CELL(abcABC): 1322.94304  1322.94304  1322.94304    90.00000    90.00000    90.00000  Step:        5700  Bead:       5 positions{angstrom}  cell{angstrom}
       E -1.95651e+01  2.95339e+01  1.53187e+01
       E -5.17492e+00  3.98998e+01 -5.25497e+00
       E -3.34352e+01  4.17008e+01 -2.03196e+01
3
# CELL(abcABC): 1322.94304  1322.94304  1322.94304    90.00000    90.00000    90.00000  Step:        5800  Bead:       5 positions{angstrom}  cell{angstrom}
       E -3.96546e+01 -1.19082e+00  2.84597e+01
       E -3.95960e+01  1.26866e+01  1.83257e+01
       E -8.88481e-01  3.39255e+01  3.28998e+00
3
# CELL(abcABC): 1322.94304  1322.94304  1322.94304    90.00000    90.00000    90.00000  Step:        5900  Bead:       5 positions{angstrom}  cell{angstrom}
       E -1.42865e+01 -4.55810e+01  8.31622e+00
       E -4.68884e+01  2.03678e+01 -1.57338e+01
       E -3.03773e+01  1.45864e+01 -1.42388e+01
3
# CELL(abcABC): 1322.94304  1322.94304  1322.94304    90.00000    90.00000    90.00000  Step:        6000  Bead:       5 positions{angstrom}  cell{angstrom}
       E  6.99885e+00 -7.05272e+01 -9.61976e-01
       E -3.57292e+01  3.11035e+01 -2.57715e+01
       E  5.24330e+01 -4.73103e+00 -1.31426e+01
3
# CELL(abcABC): 1322.94304  1322.94304  1322.94304    90.00000    90.00000    90.00000  Step:        6100  Bead:       5 positions{angstrom}  cell{angstrom}
       E  3.15857e+01 -5.38433e+01 -3.82607e+01
       E -9.28635e+00  1.00639e+01  3.28705e+01
       E  3.20820e+01  2.21180e+01 -6.25524e+01
3
# CELL(abcABC): 1322.94304  1322.94304  1322.94304    90.00000    90.00000    90.00000  Step:        6200  Bead:       5 positions{angstrom}  cell{angstrom}
       E  3.58630e+01 -7.42239e+01 -6.71203e+01
       E  3.09672e+01 -6.53919e+01  2.01137e+01
       E  4.92940e+01  1.95942e+01 -8.59994e+01
3
# CELL(abcABC): 1322.94304  1322.94304  1322.94304    90.00000    90.00000    90.00000  Step:        6300  Bead:       5 positions{angstrom}  cell{angstrom}
       E  3.73991e+01 -5.43178e+01 -6.23135e+01
       E  4.77103e+01 -4.67983e+01 -1.92504e+00
       E  3.93242e+01 -4.41201e+00 -3.42629e+01
3
# CELL(abcABC): 1322.94304  1322.94304  1322.94304    90.00000    90.00000    90.00000  Step:        6400  Bead:       5 positions{angstrom}  cell{angstrom}
       E  8.30043e+00 -6.03554e+01 -7.86667e+01
       E  6.04053e+01 -6.42288e+01 -2.47845e+01
       E  3.17418e+01 -2.08182e+01  2.80460e+00
3
# CELL(abcABC): 1322.94304  1322.94304  1322.94304    90.00000    90.00000    90.00000  Step:        6500  Bead:       5 positions{angstrom}  cell{angstrom}
       E -3.30083e+01 -1.08625e+02 -1.04915e+02
       E  4.63690e+01 -3.68272e+01 -1.58527e+01
       E  1.53901e+01 -2.13385e+01 -2.74819e+01
3
# CELL(abcABC): 1322.94304  1322.94304  1322.94304    90.00000    90.00000    90.00000  Step:        6600  Bead:       5 positions{angstrom}  cell{angstrom}
       E -1.09789e+01 -8.42709e+01 -1.20273e+02
       E -1.16932e+01 -3.78400e+01 -1.28387e+01
       E  2.35216e+01  1.31475e+01  7.14133e+00
3
# CELL(abcABC): 1322.94304  1322.94304  1322.94304    90.00000    90.00000    90.00000  Step:        6700  Bead:       5 positions{angstrom}  cell{angstrom}
       E -2.03135e+00 -8.56648e+01 -1.13698e+02
       E -1.54943e+01 -6.70385e+01 -4.01786e+00
       E  9.74740e+00  2.72143e+01 -3.01022e+01
3
# CELL(abcABC): 1322.94304  1322.94304  1322.94304    90.00000    90.00000    90.00000  Step:        6800  Bead:       5 positions{angstrom}  cell{angstrom}
       E -1.15532e+01 -7.40588e+01 -4.38443e+01
       E -8.79318e-01 -4.91583e+01  2.05747e+01
       E  2.26765e+00  3.08435e+01 -1.03820e+01
3
# CELL(abcABC): 1322.94304  1322.94304  1322.94304    90.00000    90.00000    90.00000  Step:        6900  Bead:       5 positions{angstrom}  cell{angstrom}
       E -8.82289e+00 -5.72041e+01 -4.33013e+01
       E  1.46218e+01 -3.49433e+01  5.07958e+00
       E -5.49879e+00  5.54288e+01 -1.39258e+01
3
# CELL(abcABC): 1322.94304  1322.94304  1322.94304    90.00000    90.00000    90.00000  Step:        7000  Bead:       5 positions{angstrom}  cell{angstrom}
       E -6.10188e+01 -2.46362e+01 -2.34078e+01
       E -5.81080e+00 -1.46467e+01 -4.85153e-01
       E  1.74785e+01  5.65146e+01  1.30159e+01
3
# CELL(abcABC): 1322.94304  1322.94304  1322.94304    90.00000    90.00000    90.00000  Step:        7100  Bead:       5 positions{angstrom}  cell{angstrom}
       E -2.53877e+01 -2.55856e+01 -2.03326e+01
       E -8.04867e+00  7.20748e+00  2.77287e+01
       E -2.32908e+01  6.31072e+01  2.98063e+01
3
# CELL(abcABC): 1322.94304  1322.94304  1322.94304    90.00000    90.00000    90.00000  Step:        7200  Bead:       5 positions{angstrom}  cell{angstrom}
       E  7.75628e+00 -3.59498e+01 -3.92635e+01
       E -2.91775e+00  2.06206e+01  3.29502e+01
       E  4.46670e+01  6.58492e+01  1.20292e+01
3
# CELL(abcABC): 1322.94304  1322.94304  1322.94304    90.00000    90.00000    90.00000  Step:        7300  Bead:       5 positions{angstrom}  cell{angstrom}
       E -6.39070e+00 -2.79586e+01 -2.59635e+01
       E  3.95627e+01  2.00485e+01  6.08130e+00
       E  5.83744e+01  4.40699e+01  1.76563e+01
3
# CELL(abcABC): 1322.94304  1322.94304  1322.94304    90.00000    90.00000    90.00000  Step:        7400  Bead:       5 positions{angstrom}  cell{angstrom}
       E -2.90569e+00 -2.54828e+01  2.78249e+00
       E  1.82375e+01  5.73262e+00  4.55352e+01
       E  5.46399e+01  7.62000e+01 -1.09010e+01
3
# CELL(abcABC): 1322.94304  1322.94304  1322.94304    90.00000    90.00000    90.00000  Step:        7500  Bead:       5 positions{angstrom}  cell{angstrom}
       E -1.80837e+01 -5.33680e+01 -2.15776e+01
       E -2.18539e+01  9.16016e-01 -1.48896e+01
       E  6.04365e+01  6.70447e+01 -4.07749e+00
3
# CELL(abcABC): 1322.94304  1322.94304  1322.94304    90.00000    90.00000    90.00000  Step:        7600  Bead:       5 positions{angstrom}  cell{angstrom}
       E -3.37848e+01 -6.11664e+01 -1.77473e+01
       E  4.78663e-01 -5.27577e+01 -7.77041e+00
       E  6.56977e+01  3.43794e+01 -2.42103e+01
3
# CELL(abcABC): 1322.94304  1322.94304  1322.94304    90.00000    90.00000    90.00000  Step:        7700  Bead:       5 positions{angstrom}  cell{angstrom}
       E  3.08963e+01 -3.81916e+01 -3.23405e+00
       E  2.01384e+01 -5.47892e+01 -2.14628e+01
       E  2.41733e+01 -1.34234e+01 -1.89152e+01
3
# CELL(abcABC): 1322.94304  1322.94304  1322.94304    90.00000    90.00000    90.00000  Step:        7800  Bead:       5 positions{angstrom}  cell{angstrom}
       E  2.60396e+01 -2.25001e+01 -5.09505e+01
       E  1.89527e+01 -1.55546e+01 -1.30334e+01
       E  2.17952e+01 -1.31550e+01 -4.78546e+01
3
# CELL(abcABC): 1322.94304  1322.94304  1322.94304    90.00000    90.00000    90.00000  Step:        7900  Bead:       5 positions{angstrom}  cell{angstrom}
       E  3.54041e+01  1.69033e+00 -4.22491e+01
       E  5.01807e+01 -3.25281e+01 -3.42395e+01
       E  3.70112e+01  3.79311e+01 -3.71107e+01
3
# CELL(abcABC): 1322.94304  1322.94304  1322.94304    90.00000    90.00000    90.00000  Step:        8000  Bead:       5 positions{angstrom}  cell{angstrom}
       E  1.92196e+01  1.64655e+01 -2.70934e+01
       E  4.37458e+01 -1.48223e+01 -4.78877e+01
       E -2.01385e+01  3.25694e+01 -1.14345e+01
3
# CELL(abcABC): 1322.94304  1322.94304  1322.94304    90.00000    90.00000    90.00000  Step:        8100  Bead:       5 positions{angstrom}  cell{angstrom}
       E  1.32183e+01 -1.40611e+01 -3.48351e+01
       E  3.45017e+01  4.23321e-01 -1.12231e+01
       E -1.04953e+01 -1.90370e+01  1.45659e+01
3
# CELL(abcABC): 1322.94304  1322.94304  1322.94304    90.00000    90.00000    90.00000  Step:        8200  Bead:       5 positions{angstrom}  cell{angstrom}
       E  3.95623e+01  2.00614e+01 -6.30892e+01
       E  3.19368e+01  4.33282e+01  1.00961e+01
       E  2.26406e+01 -1.57669e+01  3.94292e+01
3
# CELL(abcABC): 1322.94304  1322.94304  1322.94304    90.00000    90.00000    90.00000  Step:        8300  Bead:       5 positions{angstrom}  cell{angstrom}
       E  1.74792e+01 -9.64740e+00 -5.58474e+01
       E  3.29822e+01  3.54077e+01  3.80218e+01
       E -8.48739e+00 -4.43873e+01  4.37497e+01
3
# CELL(abcABC): 1322.94304  1322.94304  1322.94304    90.00000    90.00000    90.00000  Step:        8400  Bead:       5 positions{angstrom}  cell{angstrom}
       E  3.31901e+01  2.93472e+01 -4.05037e+01
       E  1.41362e+01  1.38000e+00  3.34580e+01
       E  2.38853e+01  1.21135e+01  2.01458e+01
3
# CELL(abcABC): 1322.94304  1322.94304  1322.94304    90.00000    90.00000    90.00000  Step:        8500  Bead:       5 positions{angstrom}  cell{angstrom}
       E -3.13469e+01  6.66348e+00 -1.86832e+01
       E  6.35702e+01  8.14622e+00  1.79456e+01
       E  3.74004e+01 -1.87984e+01  4.25317e+01
3
# CELL(abcABC): 1322.94304  1322.94304  1322.94304    90.00000    90.00000    90.00000  Step:        8600  Bead:       5 positions{angstrom}  cell{angstrom}
       E -3.98948e+01  2.18885e+01 -1.12962e+01
       E  4.57135e+01  4.70750e+01 -5.94545e+00
       E  2.84554e+01 -2.06164e+01  4.04863e+01
3
# CELL(abcABC): 1322.94304  1322.94304  1322.94304    90.00000    90.00000    90.00000  Step:        8700  Bead:       5 positions{angstrom}  cell{angstrom}
       E  5.83415e-01  2.58108e+01 -3.18102e+01
       E  5.07526e+01 -9.07168e+00  1.25604e+01
       E  4.55188e+01 -3.83023e+01  2.36394e+01
3
# CELL(abcABC): 1322.94304  1322.94304  1322.94304    90.00000    90.00000    90.00000  Step:        8800  Bead:       5 positions{angstrom}  cell{angstrom}
       E -2.12130e+01  3.33640e+01  4.10940e+00
       E  1.06873e+01  2.46467e+01  2.55372e-02
       E  2.67321e+01 -8.29840e+01  6.74427e+01
3
# CELL(abcABC): 1322.94304  1322.94304  1322.94304    90.00000    90.00000    90.00000  Step:        8900  Bead:       5 positions{angstrom}  cell{angstrom}
       E  8.61811e+00  2.92582e+01  1.92874e+01
       E -1.17616e+01 -3.92505e+01  4.96919e+01
       E  9.10841e+00 -6.32212e+01  3.31468e+01
3
# CELL(abcABC): 1322.94304  1322.94304  1322.94304    90.00000    90.00000    90.00000  Step:        9000  Bead:       5 positions{angstrom}  cell{angstrom}
       E -1.81764e+01  3.64531e+01  1.45877e+01
       E -4.88491e+01 -4.50813e+01  5.65665e+01
       E  1.09358e+01 -7.89426e+01 -1.68302e+01
3
# CELL(abcABC): 1322.94304  1322.94304  1322.94304    90.00000    90.00000    90.00000  Step:        9100  Bead:       5 positions{angstrom}  cell{angstrom}
       E  2.13375e+01  2.60272e+01  6.79423e+01
       E -3.60069e+01 -2.58359e+01  4.03179e+01
       E -1.19119e+01 -6.12326e+01 -2.13420e+01
3
# CELL(abcABC): 1322.94304  1322.94304  1322.94304    90.00000    90.00000    90.00000  Step:        9200  Bead:       5 positions{angstrom}  cell{angstrom}
       E  3.11141e+00  5.57161e+01 -7.14557e-01
       E  3.34859e+00  2.76529e+01  3.51587e+01
       E  9.49665e+00 -2.86455e+01  1.26358e+01
3
# CELL(abcABC): 1322.94304  1322.94304  1322.94304    90.00000    90.00000    90.00000  Step:        9300  Bead:       5 positions{angstrom}  cell{angstrom}
       E  7.56276e+00  3.61591e+01 -3.46504e+01
       E  9.46786e+00 -4.28329e+01  1.61627e+01
       E  4.88528e+01 -1.02986e+01 -1.86876e+01
3
# CELL(abcABC): 1322.94304  1322.94304  1322.94304    90.00000    90.00000    90.00000  Step:        9400  Bead:       5 positions{angstrom}  cell{angstrom}
       E  1.09435e+01  4.42136e+01 -4.50470e+01
       E  5.25125e+00 -3.40246e+01  2.21424e+01
       E  2.21116e+01 -4.02573e+01  8.39965e+00
3
# CELL(abcABC): 1322.94304  1322.94304  1322.94304    90.00000    90.00000    90.00000  Step:        9500  Bead:       5 positions{angstrom}  cell{angstrom}
       E  3.36517e+01  1.33540e+01 -3.18658e+01
       E  4.37370e+01 -9.97543e+00  4.54520e+00
       E  1.00082e+00 -4.33218e+01 -1.09859e+00
3
# CELL(abcABC): 1322.94304  1322.94304  1322.94304    90.00000    90.00000    90.00000  Step:        9600  Bead:       5 positions{angstrom}  cell{angstrom}
       E -2.15940e+01 -1.21476e+01 -5.29520e+01
       E  5.03968e+01 -4.82697e+01  4.12221e+01
       E -1.35961e+01 -6.11321e+00  8.69572e+00
3
# CELL(abcABC): 1322.94304  1322.94304  1322.94304    90.00000    90.00000    90.00000  Step:        9700  Bead:       5 positions{angstrom}  cell{angstrom}
       E -4.84833e+01 -2.41096e+01 -8.76012e+01
       E  1.60986e+01 -6.43761e+01  5.47544e+01
       E  1.53465e+01 -3.75361e+01  1.52586e+01
3
# CELL(abcABC): 1322.94304  1322.94304  1322.94304    90.00000    90.00000    90.00000  Step:        9800  Bead:       5 positions{angstrom}  cell{angstrom}
       E -2.79619e+01 -3.50352e+01 -6.90204e+01
       E  3.74945e+01 -9.89521e+01 -9.46652e+00
       E -1.28945e+01 -3.23258e+01  3.21386e+01
3