3
# CELL(abcABC): 1322.94304  1322.94304  1322.94304    90.00000    90.00000    90.00000  Step:           0  Bead:      21 positions{angstrom}  cell{angstrom}
       E  0.00000e+00  0.00000e+00  0.00000e+00
       E  0.00000e+00  0.00000e+00  0.00000e+00
       E  0.00000e+00  0.00000e+00  0.00000e+00
3
# CELL(abcABC): 1322.94304  1322.94304  1322.94304    90.00000    90.00000    90.00000  Step:         100  Bead:      21 positions{angstrom}  cell{angstrom}
       E  3.41226e+01 -9.01915e+00 -2.73603e+01
       E -3.71551e+01 -4.42227e+01 -1.61965e+01
       E -1.50118e+01  4.83256e+00 -5.05212e+00
3
# CELL(abcABC): 1322.94304  1322.94304  1322.94304    90.00000    90.00000    90.00000  Step:         200  Bead:      21 positions{angstrom}  cell{angstrom}
       E  3.07075e+01 -5.97663e-02 -4.67236e+00
       E  2.26616e+01 -4.31367e+01 -2.85955e+00
       E  3.47317e+01  4.87099e+01 -1.76331e+01
3
# CELL(abcABC): 1322.94304  1322.94304  1322.94304    90.00000    90.00000    90.00000  Step:         300  Bead:      21 positions{angstrom}  cell{angstrom}
       E  2.04233e+01  1.34833e+00  2.96518e+01
       E  6.21058e+00  4.65572e+00  2.56006e+01
       E -1.70613e+01  7.56627e+00 -2.23419e+01
3
# CELL(abcABC): 1322.94304  1322.94304  1322.94304    90.00000    90.00000    90.00000  Step:         400  Bead:      21 positions{angstrom}  cell{angstrom}
       E -5.58500e+00  2.80375e+01 -7.92824e+00
       E  1.50754e+01 -9.88669e+00 -2.45531e+01
       E -9.25986e+00  1.56751e+01 -6.27772e+00
3
# CELL(abcABC): 1322.94304  1322.94304  1322.94304    90.00000    90.00000    90.00000  Step:         500  Bead:      21 positions{angstrom}  cell{angstrom}
       E -5.57722e-01 -7.37313e+00 -3.25705e+00
       E  9.79948e+00  1.12181e+01  5.96021e+00
       E  3.89402e+00 -2.20171e+01  1.49191e+01
3
# CELL(abcABC): 1322.94304  1322.94304  1322.94304    90.00000    90.00000    90.00000  Step:         600  Bead:      21 positions{angstrom}  cell{angstrom}
       E  1.03444e+01  5.37683e-02 -1.26672e+01
       E  4.82508e+00 -3.73176e+00 -8.01080e+00
       E  1.46456e+01 -1.08110e+01  6.18914e+00
3
# CELL(abcABC): 1322.94304  1322.94304  1322.94304    90.00000    90.00000    90.00000  Step:         700  Bead:      21 positions{angstrom}  cell{angstrom}
       E  2.80872e+01 -1.09917e+01  5.66343e+00
       E  3.43498e+01  1.31014e+01  2.27393e+01
       E -2.40161e+01 -1.09019e+01  2.04190e+01
3
# CELL(abcABC): 1322.94304  1322.94304  1322.94304    90.00000    90.00000    90.00000  Step:         800  Bead:      21 positions{angstrom}  cell{angstrom}
       E  7.08013e+00 -1.48125e+00  2.10567e+00
       E  4.60368e+01  3.35325e+01  1.64755e+00
       E -2.53945e+01 -1.77421e+01  7.36844e+01
3
# CELL(abcABC): 1322.94304  1322.94304  1322.94304    90.00000    90.00000    90.00000  Step:         900  Bead:      21 positions{angstrom}  cell{angstrom}
       E -5.68772e+00  2.98060e+01 -4.03423e+01
       E  3.80132e+00 -4.40947e+00 -1.11531e+01
       E -5.41470e+01 -4.70978e+00  6.63687e+01
3
# CELL(abcABC): 1322.94304  1322.94304  1322.94304    90.00000    90.00000    90.00000  Step:        1000  Bead:      21 positions{angstrom}  cell{angstrom}
       E  7.69222e+00  1.37438e+01  7.21702e-01
       E -2.70161e+01  1.28334e+01 -2.95231e+01
       E -2.19033e+01 -1.06124e+01  2.88116e+01
3
# CELL(abcABC): 1322.94304  1322.94304  1322.94304    90.00000    90.00000    90.00000  Step:        1100  Bead:      21 positions{angstrom}  cell{angstrom}
       E  9.16377e+00  8.04176e+00 -3.59676e+01
       E -1.79373e+01 -1.27646e+01 -3.07775e+00
       E -6.23642e+00  3.21566e+01  3.68516e+01
3
# CELL(abcABC): 1322.94304  1322.94304  1322.94304    90.00000    90.00000    90.00000  Step:        1200  Bead:      21 positions{angstrom}  cell{angstrom}
       E -1.24976e+01  8.07900e+00 -5.38335e+01
       E  2.00499e+01 -7.22991e+00  6.06900e+00
       E  3.50459e+00  5.44015e+01 -2.00369e+01
3
# CELL(abcABC): 1322.94304  1322.94304  1322.94304    90.00000    90.00000    90.00000  Step:        1300  Bead:      21 positions{angstrom}  cell{angstrom}
       E  9.64464e+00  1.44278e+01 -7.52133e+01
       E  2.19473e+01  1.00434e+00 -2.19095e+01
       E  3.00434e+01  2.16163e+01 -3.55421e+01
3
# CELL(abcABC): 1322.94304  1322.94304  1322.94304    90.00000    90.00000    90.00000  Step:        1400  Bead:      21 positions{angstrom}  cell{angstrom}
       E  4.70083e+00  2.56472e+01 -5.24862e+01
       E -1.13758e+01  1.79586e+01 -1.20677e+01
       E  2.78048e+01 -2.39209e+01 -1.38944e+01
3
# CELL(abcABC): 1322.94304  1322.94304  1322.94304    90.00000    90.00000    90.00000  Step:        1500  Bead:      21 positions{angstrom}  cell{angstrom}
       E  6.03019e-01  4.55446e+01 -2.46180e+01
       E -5.32332e+01  6.36175e+01  1.41559e+01
       E  1.08060e+00 -2.21611e+01 -6.33505e+00
3
# CELL(abcABC): 1322.94304  1322.94304  1322.94304    90.00000    90.00000    90.00000  Step:        1600  Bead:      21 positions{angstrom}  cell{angstrom}
       E -2.19311e+01  1.91488e+01 -2.51723e+01
       E -4.88589e+01  5.38825e+01  2.50601e+01
       E  2.58413e+01  7.24069e-01 -2.99225e+01
3
# CELL(abcABC): 1322.94304  1322.94304  1322.94304    90.00000    90.00000    90.00000  Step:        1700  Bead:      21 positions{angstrom}  cell{angstrom}
       E -5.20966e+00  5.08874e+01 -1.49808e+01
       E -2.24211e+01  7.01927e+01  5.04411e+01
       E  1.06260e+01  4.29109e+01 -8.96060e-01
3
# CELL(abcABC): 1322.94304  1322.94304  1322.94304    90.00000    90.00000    90.00000  Step:        1800  Bead:      21 positions{angstrom}  cell{angstrom}
       E -4.04698e+00  4.48665e+01  3.55779e+01
       E -6.01413e+01  7.49018e+01  2.46521e+01
       E -3.40870e+01  1.80530e+01  2.12245e+01
3
# CELL(abcABC): 1322.94304  1322.94304  1322.94304    90.00000    90.00000    90.00000  Step:        1900  Bead:      21 positions{angstrom}  cell{angstrom}
       E  1.82856e+01  5.63119e+00  4.17327e+01
       E -4.42020e+01  8.18376e+01  1.44373e+01
       E -9.01310e+01  1.57787e+01  1.91547e+01
3
# CELL(abcABC): 1322.94304  1322.94304  1322.94304    90.00000    90.00000    90.00000  Step:        2000  Bead:      21 positions{angstrom}  cell{angstrom}
       E -3.03358e+01 -3.74897e+01  5.54692e+01
       E -7.17157e+01  4.52545e+01  3.71353e+01
       E -6.10184e+01  4.47377e+01  5.61020e+00
3
# CELL(abcABC): 1322.94304  1322.94304  1322.94304    90.00000    90.00000    90.00000  Step:        2100  Bead:      21 positions{angstrom}  cell{angstrom}
       E -4.51078e+01 -3.50435e+01  5.17371e+01
       E -4.86223e+01  3.36260e+01  1.28048e+01
       E -7.37127e+01  6.96117e+01  3.38888e+01
3
# CELL(abcABC): 1322.94304  1322.94304  1322.94304    90.00000    90.00000    90.00000  Step:        2200  Bead:      21 positions{angstrom}  cell{angstrom}
       E  3.98589e+00 -5.13842e+01  2.82080e+01
       E -4.53546e+01 -4.78264e+00 -9.04676e+00
       E -5.97701e+01  2.57207e+01 -3.58265e-01
3
# CELL(abcABC): 1322.94304  1322.94304  1322.94304    90.00000    90.00000    90.00000  Step:        2300  Bead:      21 positions{angstrom}  cell{angstrom}
       E -5.34928e+01 -4.59465e+01  7.17927e+01
       E -1.54831e+01  6.71008e+00 -5.10277e+00
       E -2.87361e+01  3.85608e+00 -2.28930e+01
3
# CELL(abcABC): 1322.94304  1322.94304  1322.94304    90.00000    90.00000    90.00000  Step:        2400  Bead:      21 positions{angstrom}  cell{angstrom}
       E -2.94889e+01 -2.03171e+01  2.35381e+01
       E -1.96779e+01  2.05516e+01  1.69642e+00
       E  4.08844e+00 -2.43862e+01  8.73138e+00
3
# CELL(abcABC): 1322.94304  1322.94304  1322.94304    90.00000    90.00000    90.00000  Step:        2500  Bead:      21 positions{angstrom}  cell{angstrom}
       E -3.42592e+01 -2.57412e+01  9.30439e+00
       E -3.27273e+01 -9.55379e+00 -1.09333e+01
       E  1.57570e+01 -3.43343e+01  3.00777e+01
3
# CELL(abcABC): 1322.94304  1322.94304  1322.94304    90.00000    90.00000    90.00000  Step:        2600  Bead:      21 positions{angstrom}  cell{angstrom}
       E -4.92839e+01 -5.60728e+00  2.68752e+01
       E -6.12872e+01 -1.19280e+01 -2.24492e+01
       E  2.43702e+01 -2.13449e+01  4.57846e+01
3
# CELL(abcABC): 1322.94304  1322.94304  1322.94304    90.00000    90.00000    90.00000  Step:        2700  Bead:      21 positions{angstrom}  cell{angstrom}
       E -7.10301e+01 -1.84639e+00  6.49896e+01
       E -6.29279e+01 -2.06331e+01 -2.58061e+00
       E  3.16263e+01 -6.60931e+01  3.45291e+01
3
# CELL(abcABC): 1322.94304  1322.94304  1322.94304    90.00000    90.00000    90.00000  Step:        2800  Bead:      21 positions{angstrom}  cell{angstrom}
       E -5.05395e+01 -7.99660e+00  6.64006e+01
       E -8.90419e+01 -3.58248e+01  1.26741e+01
       E  1.87337e+01 -3.35599e+01  4.30084e+00
3
# CELL(abcABC): 1322.94304  1322.94304  1322.94304    90.00000    90.00000    90.00000  Step:        2900  Bead:      21 positions{angstrom}  cell{angstrom}
       E -9.01550e+01 -2.09576e+01  4.76451e+01
       E -8.32158e+01 -6.36226e+01  5.32619e+01
       E -9.51074e+00 -1.67533e+01 -1.22826e+01
3
# CELL(abcABC): 1322.94304  1322.94304  1322.94304    90.00000    90.00000    90.00000  Step:        3000  Bead:      21 positions{angstrom}  cell{angstrom}
       E -4.91251e+01 -4.03912e+01  8.73024e+01
       E -5.86192e+01 -1.28885e+01  4.25966e+01
       E  1.49964e+01  9.20021e+00 -9.42053e+00
3
# CELL(abcABC): 1322.94304  1322.94304  1322.94304    90.00000    90.00000    90.00000  Step:        3100  Bead:      21 positions{angstrom}  cell{angstrom}
       E -8.49537e+01 -2.69726e+01  8.01909e+01
       E -8.41665e+01 -4.00116e+01  5.16472e+01
       E  3.43175e+01  5.12676e+01  6.93652e+00
3
# CELL(abcABC): 1322.94304  1322.94304  1322.94304    90.00000    90.00000    90.00000  Step:        3200  Bead:      21 positions{angstrom}  cell{angstrom}
       E -7.80277e+01 -1.11317e+01  2.89353e+01
       E -7.30161e+01 -6.31938e-01  4.72101e+01
       E  2.88771e+01  3.98016e+01  6.28544e+00
3
# CELL(abcABC): 1322.94304  1322.94304  1322.94304    90.00000    90.00000    90.00000  Step:        3300  Bead:      21 positions{angstrom}  cell{angstrom}
       E -5.49092e+01 -5.94292e-01  4.66197e+01
       E -6.90589e+01  8.07633e+00  5.64627e+01
       E -1.65779e+01  3.74451e+01 -2.90135e+01
3
# CELL(abcABC): 1322.94304  1322.94304  1322.94304    90.00000    90.00000    90.00000  Step:        3400  Bead:      21 positions{angstrom}  cell{angstrom}
       E -1.05757e+02 -3.39762e+00  8.36401e+01
       E -4.61898e+01  1.12659e+01  5.65176e+01
       E  2.82425e+00  1.37056e+01  2.46367e+01
3
# CELL(abcABC): 1322.94304  1322.94304  1322.94304    90.00000    90.00000    90.00000  Step:        3500  Bead:      21 positions{angstrom}  cell{angstrom}
       E -1.20353e+02  4.38405e-02  6.28948e+01
       E -2.32146e+00  3.66214e+01  3.59055e+01
       E -4.49168e-01  6.58086e+00  2.04855e+01
3
# CELL(abcABC): 1322.94304  1322.94304  1322.94304    90.00000    90.00000    90.00000  Step:        3600  Bead:      21 positions{angstrom}  cell{angstrom}
       E -1.06277e+02 -1.45211e+01  4.11175e+01
       E  1.28824e+00 -4.86165e+00  5.55484e+01
       E -4.82513e+01 -8.83476e+00  1.94768e+01
3
# CELL(abcABC): 1322.94304  1322.94304  1322.94304    90.00000    90.00000    90.00000  Step:        3700  Bead:      21 positions{angstrom}  cell{angstrom}
       E -8.28793e+01  7.78675e+00 -2.88282e+01
       E -6.38854e+00 -6.88191e+00  1.23658e+01
       E -3.96003e+01 -1.70843e+01  1.51609e+01
3
# CELL(abcABC): 1322.94304  1322.94304  1322.94304    90.00000    90.00000    90.00000  Step:        3800  Bead:      21 positions{angstrom}  cell{angstrom}
       E -7.21413e+01 -1.65006e+01 -1.84612e+01
       E -1.82953e+00 -7.59234e+00  4.91140e+01
       E -4.89794e+01 -1.47345e+01 -2.10733e+01
3
# CELL(abcABC): 1322.94304  1322.94304  1322.94304    90.00000    90.00000    90.00000  Step:        3900  Bead:      21 positions{angstrom}  cell{angstrom}
       E -8.68468e+01 -1.81044e+01 -5.81381e+01
       E -3.65415e+01 -2.29821e+01  2.36511e+01
       E -1.48917e+01 -2.90441e+01  2.79431e+00
3
# CELL(abcABC): 1322.94304  1322.94304  1322.94304    90.00000    90.00000    90.00000  Step:        4000  Bead:      21 positions{angstrom}  cell{angstrom}
       E -9.65282e+01  1.31226e+01 -7.68925e+01
       E -4.87220e+01 -1.60028e+00  5.09298e+01
       E -1.08395e+01  6.76647e+00  2.94284e+01
3
# CELL(abcABC): 1322.94304  1322.94304  1322.94304    90.00000    90.00000    90.00000  Step:        4100  Bead:      21 positions{angstrom}  cell{angstrom}
       E -9.50533e+01  8.54612e+00 -1.07412e+02
       E -6.12517e+01  2.52168e+00 -1.94981e+01
       E -2.67535e+01 -8.53615e+00  3.18803e+01
3
# CELL(abcABC): 1322.94304  1322.94304  1322.94304    90.00000    90.00000    90.00000  Step:        4200  Bead:      21 positions{angstrom}  cell{angstrom}
       E -8.05356e+01 -2.33727e+01 -1.10063e+02
       E -7.27336e+01  1.89904e+01 -8.05484e-02
       E  1.07527e+01  2.17210e+01  3.80462e+01
3
# CELL(abcABC): 1322.94304  1322.94304  1322.94304    90.00000    90.00000    90.00000  Step:        4300  Bead:      21 positions{angstrom}  cell{angstrom}
       E -2.23468e+01  8.52164e+00 -4.11505e+01
       E -3.67765e+01  6.17209e+00 -9.02469e+00
       E  1.55404e+01  1.41533e+01  4.30898e+01
3
# CELL(abcABC): 1322.94304  1322.94304  1322.94304    90.00000    90.00000    90.00000  Step:        4400  Bead:      21 positions{angstrom}  cell{angstrom}
       E -2.60600e+01  2.07315e+01 -2.09067e+01
       E -3.67379e+01  3.10424e+01 -5.90530e+01
       E  5.32289e+01 -2.87125e+01 -5.56454e+00
3
# CELL(abcABC): 1322.94304  1322.94304  1322.94304    90.00000    90.00000    90.00000  Step:        4500  Bead:      21 positions{angstrom}  cell{angstrom}
       E -5.46307e+01 -9.76553e-01 -2.19079e+01
       E -2.48434e+01  4.96602e+01 -5.72780e+01
       E  1.96944e+01 -6.75764e+00  2.01835e+01
3
# CELL(abcABC): 1322.94304  1322.94304  1322.94304    90.00000    90.00000    90.00000  Step:        4600  Bead:      21 positions{angstrom}  cell{angstrom}
       E -5.54024e+01  3.83419e+01 -2.92361e+01
       E -2.81387e+01  6.17349e+01 -2.31774e+01
       E -1.33583e+01  2.53054e+01 -7.74830e-01
3
# CELL(abcABC): 1322.94304  1322.94304  1322.94304    90.00000    90.00000    90.00000  Step:        4700  Bead:      21 positions{angstrom}  cell{angstrom}
       E -2.83262e+01  4.25947e+01 -5.89102e+01
       E -3.40415e+01  2.45273e+01 -3.58906e+01
       E -2.04974e+01 -1.41756e+01  1.00171e+01
3
# CELL(abcABC): 1322.94304  1322.94304  1322.94304    90.00000    90.00000    90.00000  Step:        4800  Bead:      21 positions{angstrom}  cell{angstrom}
       E -4.11671e+01  8.70322e+00 -4.80576e+01
       E -2.65663e+01 -1.94990e+00 -1.10682e+01
       E  1.57367e+01  4.63214e+00  2.63510e+01
3
# CELL(abcABC): 1322.94304  1322.94304  1322.94304    90.00000    90.00000    90.00000  Step:        4900  Bead:      21 positions{angstrom}  cell{angstrom}
       E  5.99337e+00 -1.53875e+00 -1.00870e+01
       E -4.97269e+00 -7.12065e+00 -2.03996e+01
       E -6.67596e+00 -3.48050e+01  9.87271e+00
3
# CELL(abcABC): 1322.94304  1322.94304  1322.94304    90.00000    90.00000    90.00000  Step:        5000  Bead:      21 positions{angstrom}  cell{angstrom}
       E -2.67245e+00 -1.35951e+01  2.09862e+01
       E -1.96910e+01 -4.81557e+00 -4.06192e+01
       E  1.02339e+01 -7.54115e+00 -2.20737e+01
3
# CELL(abcABC): 1322.94304  1322.94304  1322.94304    90.00000    90.00000    90.00000  Step:        5100  Bead:      21 positions{angstrom}  cell{angstrom}
       E -3.87539e+01  1.33366e+01  2.54467e+01
       E -1.37448e+01  1.38840e+01 -3.82685e+01
       E  2.09995e+01 -1.47389e+01 -4.04783e+01
3
# CELL(abcABC): 1322.94304  1322.94304  1322.94304    90.00000    90.00000    90.00000  Step:        5200  Bead:      21 positions{angstrom}  cell{angstrom}
       E -9.85747e+01 -1.66892e+01  9.44847e+00
       E  5.80847e+00  3.58964e+01 -5.20087e+01
       E  4.63275e+00  2.84718e+00  1.12830e+01
3
# CELL(abcABC): 1322.94304  1322.94304  1322.94304    90.00000    90.00000    90.00000  Step:        5300  Bead:      21 positions{angstrom}  cell{angstrom}
       E -3.88029e+01 -2.04952e+01  4.92393e+00
       E  3.68567e+01  4.97265e+01 -2.89467e+01
       E -4.70028e+01  3.00545e+01  2.86935e+01
3
# CELL(abcABC): 1322.94304  1322.94304  1322.94304    90.00000    90.00000    90.00000  Step:        5400  Bead:      21 positions{angstrom}  cell{angstrom}
       E -2.01520e+01  4.46683e+00 -9.09074e+00
       E  4.08231e+01  6.41217e+00  6.87475e+00
       E -1.81281e+01  2.87912e+01  4.92418e+01
3
# CELL(abcABC): 1322.94304  1322.94304  1322.94304    90.00000    90.00000    90.00000  Step:        5500  Bead:      21 positions{angstrom}  cell{angstrom}
       E  3.62394e+01 -2.17595e+01 -5.21095e+01
       E -1.09263e+01  3.44644e+01 -1.08811e+01
       E -2.28703e+01 -1.01968e+01  5.69177e+01
3
# CELL(abcABC): 1322.94304  1322.94304  1322.94304    90.00000    90.00000    90.00000  Step:        5600  Bead:      21 positions{angstrom}  cell{angstrom}
       E -1.39658e+01  9.39236e+00 -2.99876e+01
       E -3.41770e+01  3.76570e+01  7.43851e+00
       E -3.58620e+01  4.26196e-01  5.27681e+01
3
# CELL(abcABC): 1322.94304  1322.94304  1322.94304    90.00000    90.00000    90.00000  Step:        5700  Bead:      21 positions{angstrom}  cell{angstrom}
       E  2.02718e+00 -2.93825e+01 -5.07863e+01
       E -4.16445e+01  2.41454e+01 -1.62154e+01
       E -2.79279e+01 -1.43272e+01 -1.60525e+01
3
# CELL(abcABC): 1322.94304  1322.94304  1322.94304    90.00000    90.00000    90.00000  Step:        5800  Bead:      21 positions{angstrom}  cell{angstrom}
       E -4.18192e+00  3.37960e+00 -3.10909e+01
       E -1.51566e+01 -2.72093e+00 -5.63233e+00
       E -2.03184e+01  3.22931e+01 -3.94341e+00
3
# CELL(abcABC): 1322.94304  1322.94304  1322.94304    90.00000    90.00000    90.00000  Step:        5900  Bead:      21 positions{angstrom}  cell{angstrom}
       E  1.25007e+01  1.82268e+01 -1.49542e+01
       E -2.72501e+01  1.71154e+01  1.29249e+01
       E -1.72747e+00 -3.10685e+01 -2.63195e+01
3
# CELL(abcABC): 1322.94304  1322.94304  1322.94304    90.00000    90.00000    90.00000  Step:        6000  Bead:      21 positions{angstrom}  cell{angstrom}
       E -1.48049e+01 -3.24618e+01 -1.31532e+01
       E  3.64493e+01 -4.94200e+00 -3.73182e+00
       E  2.69004e+01 -4.49202e+00 -1.01330e+01
3
# CELL(abcABC): 1322.94304  1322.94304  1322.94304    90.00000    90.00000    90.00000  Step:        6100  Bead:      21 positions{angstrom}  cell{angstrom}
       E -1.86402e+01 -3.81474e+01 -1.90713e+01
       E  7.20358e+01  3.76837e+01 -1.03585e+01
       E  1.37786e+01 -2.25989e+01  5.61617e-01
3
# CELL(abcABC): 1322.94304  1322.94304  1322.94304    90.00000    90.00000    90.00000  Step:        6200  Bead:      21 positions{angstrom}  cell{angstrom}
       E -1.42713e+01 -3.54446e+01 -1.00820e+02
       E  1.17829e+02  3.89821e+01  4.21629e-01
       E  4.03401e+01 -3.48350e+01 -6.06230e+00
3
# CELL(abcABC): 1322.94304  1322.94304  1322.94304    90.00000    90.00000    90.00000  Step:        6300  Bead:      21 positions{angstrom}  cell{angstrom}
       E  1.52032e+01 -4.56641e+01 -1.02388e+02
       E  8.84864e+01 -1.96916e+00 -3.62152e+01
       E  1.28079e+01 -2.06502e+01 -4.73668e+00
3
# CELL(abcABC): 1322.94304  1322.94304  1322.94304    90.00000    90.00000    90.00000  Step:        6400  Bead:      21 positions{angstrom}  cell{angstrom}
       E  6.28312e+01 -6.41668e+01 -1.16913e+02
       E  3.05678e+01 -2.28262e+01 -6.24907e+01
       E  4.00938e+01 -3.34237e+01 -3.90814e+01
3
# CELL(abcABC): 1322.94304  1322.94304  1322.94304    90.00000    90.00000    90.00000  Step:        6500  Bead:      21 positions{angstrom}  cell{angstrom}
       E  2.57671e+01 -6.74103e+01 -8.83640e+01
       E  1.77977e+01  5.89342e+01 -7.03393e+01
       E  7.12233e+01 -1.73173e+01  1.44905e+01
3
# CELL(abcABC): 1322.94304  1322.94304  1322.94304    90.00000    90.00000    90.00000  Step:        6600  Bead:      21 positions{angstrom}  cell{angstrom}
       E -2.70708e+00 -1.08140e+02 -6.61514e+01
       E -3.25617e-01 -1.09153e+00 -6.06711e+01
       E  4.23798e+01 -1.81373e+01  3.92641e+00
3
# CELL(abcABC): 1322.94304  1322.94304  1322.94304    90.00000    90.00000    90.00000  Step:        6700  Bead:      21 positions{angstrom}  cell{angstrom}
       E -1.72609e+01 -1.11321e+02 -7.06549e+01
       E  2.21761e+01  4.72680e+00 -2.90947e+01
       E  5.16262e+01 -9.71638e+00  1.39157e+01
3
# CELL(abcABC): 1322.94304  1322.94304  1322.94304    90.00000    90.00000    90.00000  Step:        6800  Bead:      21 positions{angstrom}  cell{angstrom}
       E -6.76097e-01 -1.24099e+02 -6.32178e+01
       E  4.09433e+01 -2.41352e+01 -4.07977e+00
       E  3.41201e+01 -2.31269e+01 -2.31732e+01
3
# CELL(abcABC): 1322.94304  1322.94304  1322.94304    90.00000    90.00000    90.00000  Step:        6900  Bead:      21 positions{angstrom}  cell{angstrom}
       E  2.93984e+01 -6.67707e+01 -2.76463e+01
       E  3.95290e+01 -2.89341e+01 -1.03437e+00
       E -1.33766e+01 -5.06831e+00 -5.41021e+01
3
# CELL(abcABC): 1322.94304  1322.94304  1322.94304    90.00000    90.00000    90.00000  Step:        7000  Bead:      21 positions{angstrom}  cell{angstrom}
       E  1.82563e+01 -3.95214e+01 -1.53709e+01
       E  4.79364e+01  3.10095e+01 -3.49026e+01
       E  4.96544e+01 -5.21561e+00 -5.02433e+01
3
# CELL(abcABC): 1322.94304  1322.94304  1322.94304    90.00000    90.00000    90.00000  Step:        7100  Bead:      21 positions{angstrom}  cell{angstrom}
       E  5.56595e+01 -1.36399e+00 -1.16999e+01
       E  2.99733e+01  2.17110e+01  1.70077e+01
       E  2.91794e+01  4.64752e+00 -4.01100e+01
3
# CELL(abcABC): 1322.94304  1322.94304  1322.94304    90.00000    90.00000    90.00000  Step:        7200  Bead:      21 positions{angstrom}  cell{angstrom}
       E  2.26099e+01 -4.00750e+01 -5.02273e+01
       E -3.38295e+01  7.56303e+01  1.35961e+01
       E  8.65694e+01  2.93892e+01 -3.49099e+01
3
# CELL(abcABC): 1322.94304  1322.94304  1322.94304    90.00000    90.00000    90.00000  Step:        7300  Bead:      21 positions{angstrom}  cell{angstrom}
       E  4.92824e+01 -4.04836e+01 -3.38849e+01
       E -1.49884e+01  3.72103e+01  8.78066e+00
       E  3.25294e+01  9.60227e+00 -1.17541e+01
3
# CELL(abcABC): 1322.94304  1322.94304  1322.94304    90.00000    90.00000    90.00000  Step:        7400  Bead:      21 positions{angstrom}  cell{angstrom}
       E -1.88690e+01 -1.82005e+01 -3.58672e+01
       E -2.02111e+01  4.43950e+00 -2.51656e+01
       E  2.96380e+01  4.56769e+01  2.28177e-01
3
# CELL(abcABC): 1322.94304  1322.94304  1322.94304    90.00000    90.00000    90.00000  Step:        7500  Bead:      21 positions{angstrom}  cell{angstrom}
       E -2.65884e+01 -6.90476e+01 -5.40825e+01
       E -2.05181e+00 -1.34911e+01 -2.43574e+01
       E  4.34034e+01 -9.89289e+00  1.91314e+01
3
# CELL(abcABC): 1322.94304  1322.94304  1322.94304    90.00000    90.00000    90.00000  Step:        7600  Bead:      21 positions{angstrom}  cell{angstrom}
       E -7.09493e+00 -3.37032e+01 -4.53565e+01
       E -9.65850e+00 -3.41732e+01 -2.68059e+01
       E  6.54254e+00  7.79845e-01 -5.81099e+00
3
# CELL(abcABC): 1322.94304  1322.94304  1322.94304    90.00000    90.00000    90.00000  Step:        7700  Bead:      21 positions{angstrom}  cell{angstrom}
       E  1.01212e+01 -6.20144e+01 -2.00797e+01
       E  2.30106e+01 -1.01034e+01 -2.98448e+01
       E  3.21235e+01 -5.65857e+01 -2.51941e+01
3
# CELL(abcABC): 1322.94304  1322.94304  1322.94304    90.00000    90.00000    90.00000  Step:        7800  Bead:      21 positions{angstrom}  cell{angstrom}
       E  4.06835e+01 -6.69256e+01 -5.31773e+01
       E  3.64937e+01  1.77739e+00 -3.07484e+01
       E  7.11504e+00 -3.82589e+01 -2.07025e+01
3
# CELL(abcABC): 1322.94304  1322.94304  1322.94304    90.00000    90.00000    90.00000  Step:        7900  Bead:      21 positions{angstrom}  cell{angstrom}
       E  4.45877e+01 -6.04496e+01 -2.31665e+01
       E  1.41765e+01 -1.40076e+01 -6.71186e+01
       E -3.13818e+01 -3.59875e+01 -5.30910e+01
3
# CELL(abcABC): 1322.94304  1322.94304  1322.94304    90.00000    90.00000    90.00000  Step:        8000  Bead:      21 positions{angstrom}  cell{angstrom}
       E  5.08642e+01 -2.32668e+01 -1.02444e+01
       E  4.46741e+00  3.18588e+01 -3.43758e+01
       E -9.13778e+00 -1.29464e+01 -4.53708e+01
3
# CELL(abcABC): 1322.94304  1322.94304  1322.94304    90.00000    90.00000    90.00000  Step:        8100  Bead:      21 positions{angstrom}  cell{angstrom}
       E  1.52924e+01  3.10354e+01 -2.98065e+01
       E -4.50857e+01  2.91446e+01 -1.93146e+01
       E -1.48349e+01 -2.12847e+01  4.52153e+00
3
# CELL(abcABC): 1322.94304  1322.94304  1322.94304    90.00000    90.00000    90.00000  Step:        8200  Bead:      21 positions{angstrom}  cell{angstrom}
       E -1.12889e+01  2.57723e+01 -5.41869e+01
       E  2.50200e+00  2.93106e+00 -2.15609e+01
       E -1.91226e+01 -4.99389e+01  3.21101e+01
3
# CELL(abcABC): 1322.94304  1322.94304  1322.94304    90.00000    90.00000    90.00000  Step:        8300  Bead:      21 positions{angstrom}  cell{angstrom}
       E  1.18627e+01  4.68068e+01  8.75104e+00
       E -2.37524e+00  2.13549e+01 -6.04696e+00
       E -2.27219e+01 -6.77970e+01  5.81149e+01
3
# CELL(abcABC): 1322.94304  1322.94304  1322.94304    90.00000    90.00000    90.00000  Step:        8400  Bead:      21 positions{angstrom}  cell{angstrom}
       E -3.33940e+01  3.43591e+01 -1.72289e+01
       E  1.80076e+01  2.26019e+01 -1.49912e+01
       E -2.02857e+01 -6.35239e+01  4.28019e+01
3
# CELL(abcABC): 1322.94304  1322.94304  1322.94304    90.00000    90.00000    90.00000  Step:        8500  Bead:      21 positions{angstrom}  cell{angstrom}
       E -5.19150e+00 -3.08359e+01 -3.32563e+01
       E  1.98316e+01  2.99265e+01  2.29521e+01
       E -3.25263e+00 -4.01498e+01  7.02764e+01
3
# CELL(abcABC): 1322.94304  1322.94304  1322.94304    90.00000    90.00000    90.00000  Step:        8600  Bead:      21 positions{angstrom}  cell{angstrom}
       E -9.70544e-01 -4.28487e+01 -1.93080e+01
       E  2.14788e+01  1.30951e+01 -6.23143e+00
       E  4.74719e+01 -2.29712e+01  6.43444e+01
3
# CELL(abcABC): 1322.94304  1322.94304  1322.94304    90.00000    90.00000    90.00000  Step:        8700  Bead:      21 positions{angstrom}  cell{angstrom}
       E -8.17872e+00  5.12594e-01  1.09996e+01
       E  3.66021e+01 -1.43161e+00  2.02482e+01
       E  3.60656e+01 -6.49960e+00  3.38302e+01
3
# CELL(abcABC): 1322.94304  1322.94304  1322.94304    90.00000    90.00000    90.00000  Step:        8800  Bead:      21 positions{angstrom}  cell{angstrom}
       E -3.73666e+01  4.44198e+01 -1.21234e+01
       E  7.76368e+00  5.80588e+00  3.08469e+00
       E  6.07351e+01 -7.53634e+01  4.70715e+00
3
# CELL(abcABC): 1322.94304  1322.94304  1322.94304    90.00000    90.00000    90.00000  Step:        8900  Bead:      21 positions{angstrom}  cell{angstrom}
       E -6.14518e+01  2.74444e+01  3.08114e+01
       E  2.22537e+01 -9.88264e+00  1.95256e+01
       E  6.82308e+01 -5.97516e+01 -3.29083e+00
3
# CELL(abcABC): 1322.94304  1322.94304  1322.94304    90.00000    90.00000    90.00000  Step:        9000  Bead:      21 positions{angstrom}  cell{angstrom}
       E -4.78172e+01  1.44857e+01  4.02972e+01
       E  1.51238e+01  1.25258e+01  5.05454e+01
       E  7.30095e+00 -4.93731e+01  3.28835e+01
3
# CELL(abcABC): 1322.94304  1322.94304  1322.94304    90.00000    90.00000    90.00000  Step:        9100  Bead:      21 positions{angstrom}  cell{angstrom}
       E -2.41370e+01  3.18854e+01 -1.24948e+01
       E  3.62049e+01 -2.84555e+01  6.08662e+01
       E  8.15070e+00 -2.84309e+01 -2.17811e+01
3
# CELL(abcABC): 1322.94304  1322.94304  1322.94304    90.00000    90.00000    90.00000  Step:        9200  Bead:      21 positions{angstrom}  cell{angstrom}
       E -4.13048e+00  1.82794e+01 -6.78537e+00
       E -4.48214e+00  9.16581e+00  4.00225e+01
       E  4.76333e+01 -4.39320e+01 -1.47977e+01
3
# CELL(abcABC): 1322.94304  1322.94304  1322.94304    90.00000    90.00000    90.00000  Step:        9300  Bead:      21 positions{angstrom}  cell{angstrom}
       E  5.76914e+00 -9.78795e-01 -2.02954e+01
       E -5.67048e+01 -2.12309e+01  2.80577e+01
       E  9.53922e+00 -2.57010e+01 -1.85510e+00
3
# CELL(abcABC): 1322.94304  1322.94304  1322.94304    90.00000    90.00000    90.00000  Step:        9400  Bead:      21 positions{angstrom}  cell{angstrom}
       E  1.16905e+01  3.07016e+01 -5.65491e+01
       E -3.26224e+01  1.26224e+01  5.22816e+01
       E -1.92660e+01 -4.06637e+01  6.62533e+00
3
# CELL(abcABC): 1322.94304  1322.94304  1322.94304    90.00000    90.00000    90.00000  Step:        9500  Bead:      21 positions{angstrom}  cell{angstrom}
       E  2.36809e+01  3.12535e+01 -3.73189e+01
       E  3.33208e+00 -6.38978e+01  3.77849e+01
       E  1.38577e+01 -4.07836e+01  2.48274e+01
3
# CELL(abcABC): 1322.94304  1322.94304  1322.94304    90.00000    90.00000    90.00000  Step:        9600  Bead:      21 positions{angstrom}  cell{angstrom}
       E  1.58759e+01  1.28349e+01 -4.70377e+01
       E  4.55858e+01 -1.04913e+02  2.15471e+01
       E  4.05164e+00 -1.51428e+01 -4.92513e+00
3
# CELL(abcABC): 1322.94304  1322.94304  1322.94304    90.00000    90.00000    90.00000  Step:        9700  Bead:      21 positions{angstrom}  cell{angstrom}
       E -4.75950e+00 -4.73071e+01 -2.78185e+01
       E  5.10675e+00 -9.75945e+01  1.19427e+01
       E -6.70534e+00  2.98408e+00 -5.83489e+00
3
# CELL(abcABC): 1322.94304  1322.94304  1322.94304    90.00000    90.00000    90.00000  Step:        9800  Bead:      21 positions{angstrom}  cell{angstrom}
       E -2.79832e+01 -6.60753e+01 -2.33301e+01
       E  1.50821e+01 -6.22345e+01  2.09300e+01
       E -1.50548e+01 -3.31910e+01  3.29233e+01
3