3
# CELL(abcABC): 1322.94304  1322.94304  1322.94304    90.00000    90.00000    90.00000  Step:           0  Bead:      23 positions{angstrom}  cell{angstrom}
       E  0.00000e+00  0.00000e+00  0.00000e+00
       E  0.00000e+00  0.00000e+00  0.00000e+00
       E  0.00000e+00  0.00000e+00  0.00000e+00
3
# CELL(abcABC): 1322.94304  1322.94304  1322.94304    90.00000    90.00000    90.00000  Step:         100  Bead:      23 positions{angstrom}  cell{angstrom}
       E  3.19344e+01 -2.04540e+01 -1.66097e+01
       E  2.33457e+00 -2.96714e+01 -1.14586e+01
       E -5.48605e-01  1.49393e+01  6.61857e+00
3
# CELL(abcABC): 1322.94304  1322.94304  1322.94304    90.00000    90.00000    90.00000  Step:         200  Bead:      23 positions{angstrom}  cell{angstrom}
       E -4.70585e+00 -1.86725e+01  1.66997e+01
       E  5.32553e+00 -7.05828e+01 -3.06504e+00
       E  9.75946e+00  3.73620e+01  1.86032e-01
3
# CELL(abcABC): 1322.94304  1322.94304  1322.94304    90.00000    90.00000    90.00000  Step:         300  Bead:      23 positions{angstrom}  cell{angstrom}
       E -5.18317e+00 -6.05896e+00  3.19043e+01
       E -3.53187e+00 -2.39171e+01  1.88782e+01
       E  1.10277e+01  9.67132e+00 -7.82717e+00
3
# CELL(abcABC): 1322.94304  1322.94304  1322.94304    90.00000    90.00000    90.00000  Step:         400  Bead:      23 positions{angstrom}  cell{angstrom}
       E  1.25397e+01  8.24794e+00 -1.12430e+01
       E  2.63947e+00 -3.20501e+01 -4.87554e+00
       E  1.79265e+01  5.11791e+00 -8.13763e+00
3
# CELL(abcABC): 1322.94304  1322.94304  1322.94304    90.00000    90.00000    90.00000  Step:         500  Bead:      23 positions{angstrom}  cell{angstrom}
       E -7.58130e-01 -1.58956e+01 -4.70001e+01
       E  9.32365e-01  1.83261e+01  1.74952e+01
       E  3.45988e+00 -9.32242e+00  1.36193e+01
3
# CELL(abcABC): 1322.94304  1322.94304  1322.94304    90.00000    90.00000    90.00000  Step:         600  Bead:      23 positions{angstrom}  cell{angstrom}
       E  3.46107e+01 -2.72482e+00 -1.79271e+01
       E  1.46655e+01  1.71550e+01  1.00694e+01
       E  2.82086e+01  2.32565e+00 -1.78454e+01
3
# CELL(abcABC): 1322.94304  1322.94304  1322.94304    90.00000    90.00000    90.00000  Step:         700  Bead:      23 positions{angstrom}  cell{angstrom}
       E  4.45708e+01 -8.96363e+00 -5.93400e+00
       E  1.64570e+01 -1.94807e+01  2.14438e+01
       E -9.20801e+00 -4.10240e+00  4.21752e+01
3
# CELL(abcABC): 1322.94304  1322.94304  1322.94304    90.00000    90.00000    90.00000  Step:         800  Bead:      23 positions{angstrom}  cell{angstrom}
       E  2.16312e+01 -2.08242e+01  9.52541e+00
       E  4.22395e+01  1.75280e+01  1.03779e+01
       E -3.08895e+01 -7.59589e+00  4.63012e+01
3
# CELL(abcABC): 1322.94304  1322.94304  1322.94304    90.00000    90.00000    90.00000  Step:         900  Bead:      23 positions{angstrom}  cell{angstrom}
       E  6.54860e+00  2.95814e+01 -7.85625e+00
       E -4.23170e+00  7.54202e+00  1.01330e+01
       E -3.30939e+01 -5.25340e+00  5.67823e+01
3
# CELL(abcABC): 1322.94304  1322.94304  1322.94304    90.00000    90.00000    90.00000  Step:        1000  Bead:      23 positions{angstrom}  cell{angstrom}
       E  1.83131e+01  1.63934e+01  1.16808e+01
       E -2.70050e+01  3.00687e+01 -2.07614e+01
       E -2.57998e+01  2.92066e-01  4.78619e+01
3
# CELL(abcABC): 1322.94304  1322.94304  1322.94304    90.00000    90.00000    90.00000  Step:        1100  Bead:      23 positions{angstrom}  cell{angstrom}
       E -1.14711e+01  1.44693e+01 -5.34405e+01
       E -3.08106e+01  1.26600e+01  5.79576e+00
       E  3.26317e+01  2.51348e+01  1.62518e+01
3
# CELL(abcABC): 1322.94304  1322.94304  1322.94304    90.00000    90.00000    90.00000  Step:        1200  Bead:      23 positions{angstrom}  cell{angstrom}
       E  6.48316e+00 -2.07855e+01 -2.14822e+01
       E -4.53653e+00  2.88817e+01 -1.00995e+01
       E  3.18233e+01  5.66352e+01 -3.41330e+01
3
# CELL(abcABC): 1322.94304  1322.94304  1322.94304    90.00000    90.00000    90.00000  Step:        1300  Bead:      23 positions{angstrom}  cell{angstrom}
       E  1.06648e+01  2.49192e+01 -5.25415e+01
       E -1.34274e+01  2.09949e+00 -5.49130e+01
       E  2.07250e+00  1.07401e+01 -2.02170e+01
3
# CELL(abcABC): 1322.94304  1322.94304  1322.94304    90.00000    90.00000    90.00000  Step:        1400  Bead:      23 positions{angstrom}  cell{angstrom}
       E -1.85243e+01  3.93791e+01 -7.11800e+01
       E  4.81850e+00  2.94100e+01 -2.10103e+01
       E -3.19624e+00 -2.17261e+01 -2.15120e+01
3
# CELL(abcABC): 1322.94304  1322.94304  1322.94304    90.00000    90.00000    90.00000  Step:        1500  Bead:      23 positions{angstrom}  cell{angstrom}
       E  1.37881e+01  4.49327e+01 -7.22496e+01
       E -5.82885e+01  4.77275e+01 -9.68324e+00
       E  1.92913e+01 -8.46633e+00  8.05891e+00
3
# CELL(abcABC): 1322.94304  1322.94304  1322.94304    90.00000    90.00000    90.00000  Step:        1600  Bead:      23 positions{angstrom}  cell{angstrom}
       E -2.52349e+01  2.29335e+01 -4.01295e+01
       E -4.05292e+01  6.73795e+01  8.25320e+00
       E  3.86064e+01  1.67847e+01 -8.44643e+00
3
# CELL(abcABC): 1322.94304  1322.94304  1322.94304    90.00000    90.00000    90.00000  Step:        1700  Bead:      23 positions{angstrom}  cell{angstrom}
       E -1.36274e+01  3.56885e+01 -1.37993e+01
       E -1.95952e+01  6.68283e+01  3.18466e+01
       E  3.18436e+01  2.66785e+01 -1.74028e+01
3
# CELL(abcABC): 1322.94304  1322.94304  1322.94304    90.00000    90.00000    90.00000  Step:        1800  Bead:      23 positions{angstrom}  cell{angstrom}
       E -2.14847e+01  2.96723e+01  3.51142e+01
       E -8.01081e+01  6.94559e+01  2.71120e+01
       E -4.96687e+01  1.17263e+01  1.30321e+01
3
# CELL(abcABC): 1322.94304  1322.94304  1322.94304    90.00000    90.00000    90.00000  Step:        1900  Bead:      23 positions{angstrom}  cell{angstrom}
       E  1.33687e+01  1.79171e-01  2.16405e+01
       E -5.79397e+01  9.05594e+01 -7.82792e+00
       E -6.33912e+01  1.40314e+01 -7.00976e+00
3
# CELL(abcABC): 1322.94304  1322.94304  1322.94304    90.00000    90.00000    90.00000  Step:        2000  Bead:      23 positions{angstrom}  cell{angstrom}
       E -2.67033e+01 -4.87983e+01  5.35088e+01
       E -4.67068e+01  3.69846e+01  1.22583e+01
       E -5.84787e+01  5.12879e+01 -7.83927e+00
3
# CELL(abcABC): 1322.94304  1322.94304  1322.94304    90.00000    90.00000    90.00000  Step:        2100  Bead:      23 positions{angstrom}  cell{angstrom}
       E -1.75389e+01 -4.98608e+01  4.50507e+01
       E -3.35398e+01  1.79402e+01  3.29399e+01
       E -3.90069e+01  5.67842e+01  2.33775e+01
3
# CELL(abcABC): 1322.94304  1322.94304  1322.94304    90.00000    90.00000    90.00000  Step:        2200  Bead:      23 positions{angstrom}  cell{angstrom}
       E -2.04727e+01 -7.01480e+01  1.98920e-01
       E -3.49138e+01  3.84178e+00  1.13824e+01
       E -2.03268e+01 -6.90549e+00 -3.05693e+00
3
# CELL(abcABC): 1322.94304  1322.94304  1322.94304    90.00000    90.00000    90.00000  Step:        2300  Bead:      23 positions{angstrom}  cell{angstrom}
       E -3.83120e+01 -7.77092e+01  3.48257e+01
       E -4.33289e+01  6.04522e+01 -4.53707e+00
       E -2.96249e+01 -1.74657e+01 -2.21182e+01
3
# CELL(abcABC): 1322.94304  1322.94304  1322.94304    90.00000    90.00000    90.00000  Step:        2400  Bead:      23 positions{angstrom}  cell{angstrom}
       E -4.69425e+00 -3.72095e+01  2.21031e-01
       E -3.05455e+01  2.28241e+01  4.02980e+00
       E -8.55443e+00 -3.09258e+01 -1.69127e+01
3
# CELL(abcABC): 1322.94304  1322.94304  1322.94304    90.00000    90.00000    90.00000  Step:        2500  Bead:      23 positions{angstrom}  cell{angstrom}
       E -5.14512e+01 -1.87325e+01  2.83772e+01
       E -2.87528e+01 -5.92391e+00  1.32992e-01
       E  2.63240e+01 -5.18476e+01  8.30435e+00
3
# CELL(abcABC): 1322.94304  1322.94304  1322.94304    90.00000    90.00000    90.00000  Step:        2600  Bead:      23 positions{angstrom}  cell{angstrom}
       E -6.07006e+01 -1.76346e+01  3.06342e+01
       E -8.57050e+01 -6.97726e+00  3.34813e-01
       E  4.70458e+01 -5.74796e+01  7.10289e+01
3
# CELL(abcABC): 1322.94304  1322.94304  1322.94304    90.00000    90.00000    90.00000  Step:        2700  Bead:      23 positions{angstrom}  cell{angstrom}
       E -7.02210e+01 -3.94941e+01  6.13791e+01
       E -3.87791e+01 -1.29801e+01 -1.02035e+01
       E -7.63854e+00 -7.21042e+01  5.42229e+01
3
# CELL(abcABC): 1322.94304  1322.94304  1322.94304    90.00000    90.00000    90.00000  Step:        2800  Bead:      23 positions{angstrom}  cell{angstrom}
       E -3.98019e+01 -4.83892e+01  9.54687e+01
       E -6.36552e+01 -3.87659e+01  2.65289e+01
       E  3.50208e+01 -5.98593e+01  1.83074e+01
3
# CELL(abcABC): 1322.94304  1322.94304  1322.94304    90.00000    90.00000    90.00000  Step:        2900  Bead:      23 positions{angstrom}  cell{angstrom}
       E -6.54511e+01 -4.33312e+01  7.68383e+01
       E -5.56343e+01 -5.54295e+01  5.53184e+01
       E  1.52477e+01 -3.67824e+01  3.11020e+01
3
# CELL(abcABC): 1322.94304  1322.94304  1322.94304    90.00000    90.00000    90.00000  Step:        3000  Bead:      23 positions{angstrom}  cell{angstrom}
       E -6.21938e+01 -6.23819e+01  7.54869e+01
       E -6.71571e+01 -2.29989e+01  2.77978e+01
       E  1.16680e+01  2.62777e+01 -1.79659e+01
3
# CELL(abcABC): 1322.94304  1322.94304  1322.94304    90.00000    90.00000    90.00000  Step:        3100  Bead:      23 positions{angstrom}  cell{angstrom}
       E -8.01223e+01 -4.13636e+01  6.17209e+01
       E -6.24720e+01 -4.25661e+01  5.41035e+01
       E  5.23290e+01  3.64302e+01 -9.89948e+00
3
# CELL(abcABC): 1322.94304  1322.94304  1322.94304    90.00000    90.00000    90.00000  Step:        3200  Bead:      23 positions{angstrom}  cell{angstrom}
       E -8.45710e+01 -1.95761e+01  2.16641e+01
       E -5.55247e+01 -1.71185e+00  6.47301e+01
       E  2.08049e+01  1.13568e+01  1.56876e+01
3
# CELL(abcABC): 1322.94304  1322.94304  1322.94304    90.00000    90.00000    90.00000  Step:        3300  Bead:      23 positions{angstrom}  cell{angstrom}
       E -5.46286e+01  2.26247e+00  6.36946e+01
       E -6.90524e+01  8.43993e+00  6.20413e+01
       E  3.36448e+00  3.23508e+01 -2.71301e+01
3
# CELL(abcABC): 1322.94304  1322.94304  1322.94304    90.00000    90.00000    90.00000  Step:        3400  Bead:      23 positions{angstrom}  cell{angstrom}
       E -9.36203e+01  8.20304e+00  8.19559e+01
       E -3.35206e+01  1.79840e+01  4.81682e+01
       E  7.70970e+00  2.17330e+01  1.80278e+01
3
# CELL(abcABC): 1322.94304  1322.94304  1322.94304    90.00000    90.00000    90.00000  Step:        3500  Bead:      23 positions{angstrom}  cell{angstrom}
       E -1.00255e+02  1.66501e+01  7.81821e+01
       E -3.78366e+00  9.57457e+00  3.90446e+01
       E  1.72519e+00 -1.41131e+01  2.46438e+01
3
# CELL(abcABC): 1322.94304  1322.94304  1322.94304    90.00000    90.00000    90.00000  Step:        3600  Bead:      23 positions{angstrom}  cell{angstrom}
       E -1.26873e+02 -2.49609e+01  5.71962e+01
       E  8.22017e+00  2.44747e+01  4.88285e+01
       E -5.30872e+01 -2.65346e+01  2.02733e+01
3
# CELL(abcABC): 1322.94304  1322.94304  1322.94304    90.00000    90.00000    90.00000  Step:        3700  Bead:      23 positions{angstrom}  cell{angstrom}
       E -8.37155e+01 -1.27284e+01  2.03430e+01
       E -8.79199e+00 -1.83278e+01  2.85083e+01
       E -4.08619e+01 -4.65026e+00  6.19698e+00
3
# CELL(abcABC): 1322.94304  1322.94304  1322.94304    90.00000    90.00000    90.00000  Step:        3800  Bead:      23 positions{angstrom}  cell{angstrom}
       E -8.12107e+01  7.55633e+00  1.52099e+01
       E -5.81376e+00 -2.22722e+01  4.90428e+01
       E -2.54068e+01 -3.27491e+01 -7.98137e+00
3
# CELL(abcABC): 1322.94304  1322.94304  1322.94304    90.00000    90.00000    90.00000  Step:        3900  Bead:      23 positions{angstrom}  cell{angstrom}
       E -7.78067e+01 -1.22030e+01 -3.18642e+01
       E -2.08941e+01  4.15041e+00  3.00555e+01
       E -4.77627e+00 -3.44503e+01 -7.72227e+00
3
# CELL(abcABC): 1322.94304  1322.94304  1322.94304    90.00000    90.00000    90.00000  Step:        4000  Bead:      23 positions{angstrom}  cell{angstrom}
       E -8.49460e+01 -1.25108e+01 -4.21314e+01
       E -4.52407e+01  1.37365e+01  4.23542e+01
       E -3.81678e+01 -1.30858e+01  9.69055e+00
3
# CELL(abcABC): 1322.94304  1322.94304  1322.94304    90.00000    90.00000    90.00000  Step:        4100  Bead:      23 positions{angstrom}  cell{angstrom}
       E -7.57711e+01  1.00295e+01 -9.41669e+01
       E -5.51241e+01  2.78259e+01  9.67549e+00
       E -1.85600e+01  1.79404e+01  1.71605e+01
3
# CELL(abcABC): 1322.94304  1322.94304  1322.94304    90.00000    90.00000    90.00000  Step:        4200  Bead:      23 positions{angstrom}  cell{angstrom}
       E -5.37219e+01 -2.40696e+01 -1.24916e+02
       E -6.98513e+01  2.79758e+01  1.07970e+01
       E  3.98133e+00  4.06456e+01  1.69292e+01
3
# CELL(abcABC): 1322.94304  1322.94304  1322.94304    90.00000    90.00000    90.00000  Step:        4300  Bead:      23 positions{angstrom}  cell{angstrom}
       E -4.93287e+01  3.76922e+00 -5.14907e+01
       E -3.33032e+01  3.66545e+01 -2.29939e+01
       E  2.32941e+01  2.50506e+01  4.06130e+01
3
# CELL(abcABC): 1322.94304  1322.94304  1322.94304    90.00000    90.00000    90.00000  Step:        4400  Bead:      23 positions{angstrom}  cell{angstrom}
       E -3.43594e+01  2.76034e+01 -3.85224e+01
       E -2.84244e+01  2.72857e+01 -4.25291e+01
       E  4.11219e+01 -2.45130e+01  5.81185e+00
3
# CELL(abcABC): 1322.94304  1322.94304  1322.94304    90.00000    90.00000    90.00000  Step:        4500  Bead:      23 positions{angstrom}  cell{angstrom}
       E -4.71842e+01  2.10161e+01 -4.05938e+01
       E -2.21417e+01  3.19054e+01 -4.95925e+01
       E  3.52792e+01 -2.82260e+01  2.13401e+01
3
# CELL(abcABC): 1322.94304  1322.94304  1322.94304    90.00000    90.00000    90.00000  Step:        4600  Bead:      23 positions{angstrom}  cell{angstrom}
       E -6.37818e+01  3.19924e+01  2.51797e+00
       E -2.52110e+01  1.83431e+01 -1.27421e+01
       E -1.78745e+01 -1.99820e+00  3.14012e+01
3
# CELL(abcABC): 1322.94304  1322.94304  1322.94304    90.00000    90.00000    90.00000  Step:        4700  Bead:      23 positions{angstrom}  cell{angstrom}
       E -2.47875e+01  3.09235e+01 -7.68878e+01
       E -4.76615e+01  2.09202e+01 -2.14057e+01
       E -2.41232e+01 -1.11962e+01  2.29013e+01
3
# CELL(abcABC): 1322.94304  1322.94304  1322.94304    90.00000    90.00000    90.00000  Step:        4800  Bead:      23 positions{angstrom}  cell{angstrom}
       E -7.22830e+00  6.28928e+00 -5.54120e+01
       E -2.35344e+01  4.58540e+00 -1.81960e+01
       E  6.45761e+00 -1.78557e+01  1.57208e+01
3
# CELL(abcABC): 1322.94304  1322.94304  1322.94304    90.00000    90.00000    90.00000  Step:        4900  Bead:      23 positions{angstrom}  cell{angstrom}
       E -7.98547e+00  4.70262e+00 -4.72533e+01
       E -2.41130e+01 -4.23912e+00 -3.91705e+01
       E -1.53048e+01 -2.44618e+01 -2.56677e+01
3
# CELL(abcABC): 1322.94304  1322.94304  1322.94304    90.00000    90.00000    90.00000  Step:        5000  Bead:      23 positions{angstrom}  cell{angstrom}
       E  8.52681e+00 -8.48661e+00  1.11519e+01
       E  1.10697e+01 -1.20996e+01 -3.62321e+01
       E -3.48774e+00 -6.26210e+00 -7.00591e+00
3
# CELL(abcABC): 1322.94304  1322.94304  1322.94304    90.00000    90.00000    90.00000  Step:        5100  Bead:      23 positions{angstrom}  cell{angstrom}
       E -4.63247e+01 -8.43264e+00  1.18933e+01
       E  2.62532e+01 -5.60033e+00 -6.02832e+01
       E  1.92390e+01 -1.78883e+00 -2.23856e+01
3
# CELL(abcABC): 1322.94304  1322.94304  1322.94304    90.00000    90.00000    90.00000  Step:        5200  Bead:      23 positions{angstrom}  cell{angstrom}
       E -1.08756e+02 -1.13139e+01  2.48880e+01
       E  1.62078e+00  2.70623e+01 -3.37524e+01
       E  3.64655e+01 -4.43100e+00  1.00051e+01
3
# CELL(abcABC): 1322.94304  1322.94304  1322.94304    90.00000    90.00000    90.00000  Step:        5300  Bead:      23 positions{angstrom}  cell{angstrom}
       E -3.01407e+01 -2.12479e+01 -1.53434e+01
       E  9.95976e+00  4.54993e+01 -9.99870e+00
       E -4.98874e+01  3.28094e+01  4.44097e+01
3
# CELL(abcABC): 1322.94304  1322.94304  1322.94304    90.00000    90.00000    90.00000  Step:        5400  Bead:      23 positions{angstrom}  cell{angstrom}
       E -5.14801e+00  1.71951e+01 -3.69214e+01
       E  6.13121e+00  1.81973e+01  1.13409e+00
       E -3.29173e+01  1.32486e+01  2.59107e+01
3
# CELL(abcABC): 1322.94304  1322.94304  1322.94304    90.00000    90.00000    90.00000  Step:        5500  Bead:      23 positions{angstrom}  cell{angstrom}
       E  1.16504e+01 -2.05823e+01 -2.02467e+01
       E -9.77718e+00  2.03257e+01 -1.26205e+01
       E -2.55762e+01  1.20312e+01  5.32645e+01
3
# CELL(abcABC): 1322.94304  1322.94304  1322.94304    90.00000    90.00000    90.00000  Step:        5600  Bead:      23 positions{angstrom}  cell{angstrom}
       E -1.04063e+01  2.51707e+01 -3.42214e+01
       E  8.33543e+00  3.03992e+01  1.86015e+01
       E -5.70674e+01 -9.35153e+00  2.81396e+01
3
# CELL(abcABC): 1322.94304  1322.94304  1322.94304    90.00000    90.00000    90.00000  Step:        5700  Bead:      23 positions{angstrom}  cell{angstrom}
       E  1.57668e+01 -1.40608e+01 -4.81435e+01
       E -2.73938e+01  8.16620e+00 -8.14085e+00
       E -3.39281e+01  2.60164e+00  2.36569e+00
3
# CELL(abcABC): 1322.94304  1322.94304  1322.94304    90.00000    90.00000    90.00000  Step:        5800  Bead:      23 positions{angstrom}  cell{angstrom}
       E -7.16342e+00  4.19139e+00 -2.50248e+01
       E -4.18427e+01 -3.68289e+00 -3.51679e+00
       E -9.23900e+00 -3.30013e-01  1.21376e+00
3
# CELL(abcABC): 1322.94304  1322.94304  1322.94304    90.00000    90.00000    90.00000  Step:        5900  Bead:      23 positions{angstrom}  cell{angstrom}
       E  1.17831e+01 -2.56307e+01 -3.74575e+00
       E -6.76139e+00  2.07766e+01  6.57056e+00
       E  2.91461e+01 -4.36186e+01  1.31431e+01
3
# CELL(abcABC): 1322.94304  1322.94304  1322.94304    90.00000    90.00000    90.00000  Step:        6000  Bead:      23 positions{angstrom}  cell{angstrom}
       E -3.49341e+01 -3.57881e+01 -3.94109e+01
       E  4.19307e+01 -1.68726e+01 -2.29863e+01
       E  1.07052e+01 -3.59509e+01  8.24078e+00
3
# CELL(abcABC): 1322.94304  1322.94304  1322.94304    90.00000    90.00000    90.00000  Step:        6100  Bead:      23 positions{angstrom}  cell{angstrom}
       E -3.67448e+01 -3.96839e+01 -1.68185e+01
       E  9.75352e+01  3.29693e+01 -6.30129e+01
       E  1.47492e+01 -4.24405e+01  1.84887e+01
3
# CELL(abcABC): 1322.94304  1322.94304  1322.94304    90.00000    90.00000    90.00000  Step:        6200  Bead:      23 positions{angstrom}  cell{angstrom}
       E  4.83129e+00 -1.67194e+01 -6.84811e+01
       E  1.23362e+02  3.92248e+01 -7.62170e+00
       E  1.83601e+01 -4.62692e+01 -3.94052e-01
3
# CELL(abcABC): 1322.94304  1322.94304  1322.94304    90.00000    90.00000    90.00000  Step:        6300  Bead:      23 positions{angstrom}  cell{angstrom}
       E  3.63478e+01 -6.15490e+01 -9.56214e+01
       E  8.08178e+01 -6.43467e+00 -5.22405e+01
       E  1.07840e+01 -5.53226e+01  3.62469e+01
3
# CELL(abcABC): 1322.94304  1322.94304  1322.94304    90.00000    90.00000    90.00000  Step:        6400  Bead:      23 positions{angstrom}  cell{angstrom}
       E  7.42797e+01 -7.77490e+01 -1.17594e+02
       E  5.38711e+00 -1.59510e+01 -5.17906e+01
       E  2.34504e+01 -6.67001e+01 -1.66318e+01
3
# CELL(abcABC): 1322.94304  1322.94304  1322.94304    90.00000    90.00000    90.00000  Step:        6500  Bead:      23 positions{angstrom}  cell{angstrom}
       E  4.44876e+01 -1.02174e+02 -9.77917e+01
       E  1.59094e+01  3.46376e+01 -6.31302e+01
       E  5.76595e+01 -3.40559e+01 -4.17757e+00
3
# CELL(abcABC): 1322.94304  1322.94304  1322.94304    90.00000    90.00000    90.00000  Step:        6600  Bead:      23 positions{angstrom}  cell{angstrom}
       E  1.15439e+01 -1.02606e+02 -7.29833e+01
       E  1.81245e+01  5.36805e+00 -3.31176e+01
       E  6.20937e+01  2.12498e+01  1.19442e+01
3
# CELL(abcABC): 1322.94304  1322.94304  1322.94304    90.00000    90.00000    90.00000  Step:        6700  Bead:      23 positions{angstrom}  cell{angstrom}
       E  9.46378e+00 -1.11062e+02 -9.59904e+01
       E  3.86022e+01 -2.68699e+01  9.06857e+00
       E  3.46336e+01  1.04132e+01  2.05270e+01
3
# CELL(abcABC): 1322.94304  1322.94304  1322.94304    90.00000    90.00000    90.00000  Step:        6800  Bead:      23 positions{angstrom}  cell{angstrom}
       E  1.99380e+01 -1.28250e+02 -6.79130e+01
       E  4.11590e+01 -2.77140e+01  1.75593e+01
       E  1.89947e+01 -1.86619e+01 -1.74395e+00
3
# CELL(abcABC): 1322.94304  1322.94304  1322.94304    90.00000    90.00000    90.00000  Step:        6900  Bead:      23 positions{angstrom}  cell{angstrom}
       E  3.71144e+01 -1.00306e+02  1.09924e+00
       E  4.94250e+01 -9.86351e-01 -1.29828e+00
       E -6.80865e+00 -2.26053e+01 -6.32636e+01
3
# CELL(abcABC): 1322.94304  1322.94304  1322.94304    90.00000    90.00000    90.00000  Step:        7000  Bead:      23 positions{angstrom}  cell{angstrom}
       E  1.73733e+01 -3.00936e+01 -1.28572e+00
       E  4.62220e+01  3.96637e+01 -2.20441e+01
       E  3.46891e+01  2.32584e+01 -6.49474e+01
3
# CELL(abcABC): 1322.94304  1322.94304  1322.94304    90.00000    90.00000    90.00000  Step:        7100  Bead:      23 positions{angstrom}  cell{angstrom}
       E  3.63947e+01 -1.66327e+01 -4.50308e+01
       E  5.53800e+00  3.75509e+01  2.61006e+01
       E  6.60890e+01  8.38332e-01 -5.78476e+01
3
# CELL(abcABC): 1322.94304  1322.94304  1322.94304    90.00000    90.00000    90.00000  Step:        7200  Bead:      23 positions{angstrom}  cell{angstrom}
       E  3.08817e+00 -2.55338e+01 -4.14247e+01
       E -2.94725e+01  7.44223e+01  6.27527e+00
       E  5.44418e+01  4.59561e+01 -4.57609e+01
3
# CELL(abcABC): 1322.94304  1322.94304  1322.94304    90.00000    90.00000    90.00000  Step:        7300  Bead:      23 positions{angstrom}  cell{angstrom}
       E  5.79223e+01 -3.54267e+01 -3.63003e+01
       E -1.79087e+01  2.96419e+01 -8.91856e+00
       E  2.47573e+01  2.82159e+01  6.09100e+00
3
# CELL(abcABC): 1322.94304  1322.94304  1322.94304    90.00000    90.00000    90.00000  Step:        7400  Bead:      23 positions{angstrom}  cell{angstrom}
       E -1.35975e+01 -5.71407e+01 -2.39904e+01
       E  9.54071e+00 -5.47053e+00 -3.12448e+01
       E  2.63569e+01  3.21203e+01  2.64377e+01
3
# CELL(abcABC): 1322.94304  1322.94304  1322.94304    90.00000    90.00000    90.00000  Step:        7500  Bead:      23 positions{angstrom}  cell{angstrom}
       E -1.65817e+01 -5.68213e+01 -5.74506e+01
       E  2.16911e+01 -3.54958e+01 -3.43187e+01
       E  4.04414e+01 -1.55070e+01  4.14684e+01
3
# CELL(abcABC): 1322.94304  1322.94304  1322.94304    90.00000    90.00000    90.00000  Step:        7600  Bead:      23 positions{angstrom}  cell{angstrom}
       E -2.26480e+01 -5.21317e+01 -3.98187e+01
       E -1.71636e+01 -1.80895e+01  2.00729e+00
       E  9.99779e+00 -1.88080e+01 -1.33863e+01
3
# CELL(abcABC): 1322.94304  1322.94304  1322.94304    90.00000    90.00000    90.00000  Step:        7700  Bead:      23 positions{angstrom}  cell{angstrom}
       E -2.37124e+01 -5.57517e+01 -4.26004e+01
       E  2.06178e+01 -1.12448e-01 -8.64149e+00
       E  3.60843e+01 -4.95098e+01 -4.32887e+01
3
# CELL(abcABC): 1322.94304  1322.94304  1322.94304    90.00000    90.00000    90.00000  Step:        7800  Bead:      23 positions{angstrom}  cell{angstrom}
       E  4.32507e+01 -3.63653e+01 -2.46525e+01
       E  2.28007e+01  1.78511e+01 -3.74411e+01
       E  2.37099e+01 -5.63172e+01 -2.69784e+01
3
# CELL(abcABC): 1322.94304  1322.94304  1322.94304    90.00000    90.00000    90.00000  Step:        7900  Bead:      23 positions{angstrom}  cell{angstrom}
       E  6.08852e+01 -2.95778e+01 -4.74733e+01
       E  3.89833e+01 -1.19744e+01 -5.23663e+01
       E -2.45613e+01 -6.50760e+01 -3.80722e+01
3
# CELL(abcABC): 1322.94304  1322.94304  1322.94304    90.00000    90.00000    90.00000  Step:        8000  Bead:      23 positions{angstrom}  cell{angstrom}
       E  5.38031e+01 -8.23575e+00 -1.47635e+01
       E -9.99168e+00  2.39206e+01 -4.70753e+01
       E -7.97494e+00 -3.11841e+01 -2.85542e+01
3
# CELL(abcABC): 1322.94304  1322.94304  1322.94304    90.00000    90.00000    90.00000  Step:        8100  Bead:      23 positions{angstrom}  cell{angstrom}
       E  3.05668e+01  3.45586e+01 -4.27178e+01
       E -3.44598e+01  3.88222e+01 -4.31131e+01
       E -1.41557e+01 -9.94965e+00  2.27547e+01
3
# CELL(abcABC): 1322.94304  1322.94304  1322.94304    90.00000    90.00000    90.00000  Step:        8200  Bead:      23 positions{angstrom}  cell{angstrom}
       E  1.12724e+01  1.76781e+01 -1.72301e+01
       E -6.12737e+00  1.68879e+01 -1.75828e+01
       E -2.89299e+01 -4.66358e+01  3.28697e+01
3
# CELL(abcABC): 1322.94304  1322.94304  1322.94304    90.00000    90.00000    90.00000  Step:        8300  Bead:      23 positions{angstrom}  cell{angstrom}
       E -1.90251e+01  4.64480e+01 -2.06343e+01
       E  3.05388e+01  2.34538e+01 -2.54194e+00
       E -5.68956e+00 -5.39129e+01  4.17080e+01
3
# CELL(abcABC): 1322.94304  1322.94304  1322.94304    90.00000    90.00000    90.00000  Step:        8400  Bead:      23 positions{angstrom}  cell{angstrom}
       E -2.87352e+01  2.19335e+01 -2.02392e-01
       E  2.59448e+01  3.26114e+01 -1.08248e+00
       E -4.15096e+01 -5.18575e+01  4.62964e+01
3
# CELL(abcABC): 1322.94304  1322.94304  1322.94304    90.00000    90.00000    90.00000  Step:        8500  Bead:      23 positions{angstrom}  cell{angstrom}
       E -2.68820e+01 -7.90193e+00 -2.98353e+01
       E  9.69322e+00  4.70258e+01  2.87002e+00
       E  9.63468e+00 -3.87243e+01  7.70979e+01
3
# CELL(abcABC): 1322.94304  1322.94304  1322.94304    90.00000    90.00000    90.00000  Step:        8600  Bead:      23 positions{angstrom}  cell{angstrom}
       E -2.72075e+01 -2.56467e+00 -3.19818e+01
       E  8.70346e+00  2.66030e+01  2.00392e+01
       E  3.70524e+01 -1.43758e+01  2.83633e+01
3
# CELL(abcABC): 1322.94304  1322.94304  1322.94304    90.00000    90.00000    90.00000  Step:        8700  Bead:      23 positions{angstrom}  cell{angstrom}
       E  1.86967e+01 -1.88468e+01 -1.62914e+01
       E  1.06155e+01 -1.80240e+01  2.22709e+01
       E  5.53906e+01 -1.25238e+01  9.76446e+00
3
# CELL(abcABC): 1322.94304  1322.94304  1322.94304    90.00000    90.00000    90.00000  Step:        8800  Bead:      23 positions{angstrom}  cell{angstrom}
       E -4.25683e+01  6.10160e+00 -2.78245e+01
       E  1.80512e+00 -2.40391e+01  1.99881e+01
       E  7.95814e+01 -3.89829e+01 -1.43319e+01
3
# CELL(abcABC): 1322.94304  1322.94304  1322.94304    90.00000    90.00000    90.00000  Step:        8900  Bead:      23 positions{angstrom}  cell{angstrom}
       E -5.82363e+01  2.03716e+01  1.03363e+01
       E  2.06802e+01 -2.83872e+01  1.55547e+01
       E  5.98711e+01 -7.30317e+01 -4.42241e+00
3
# CELL(abcABC): 1322.94304  1322.94304  1322.94304    90.00000    90.00000    90.00000  Step:        9000  Bead:      23 positions{angstrom}  cell{angstrom}
       E -3.17814e+01 -5.18070e-03  1.27324e+01
       E  2.12188e+01 -1.53687e+00  5.86189e+01
       E  1.21811e+01 -7.28317e+01  5.53209e+00
3
# CELL(abcABC): 1322.94304  1322.94304  1322.94304    90.00000    90.00000    90.00000  Step:        9100  Bead:      23 positions{angstrom}  cell{angstrom}
       E -3.61734e+01  1.29714e+01  7.11351e+00
       E  1.40443e+01  1.25945e+01  4.84143e+01
       E  2.22421e+01 -3.22817e+01  1.91138e+01
3
# CELL(abcABC): 1322.94304  1322.94304  1322.94304    90.00000    90.00000    90.00000  Step:        9200  Bead:      23 positions{angstrom}  cell{angstrom}
       E  8.87298e+00  9.72460e+00 -2.83560e+01
       E -8.20692e+00  1.58270e+01  3.41109e+01
       E  3.81852e+01 -5.19901e+01  2.21558e+01
3
# CELL(abcABC): 1322.94304  1322.94304  1322.94304    90.00000    90.00000    90.00000  Step:        9300  Bead:      23 positions{angstrom}  cell{angstrom}
       E  3.86968e+01 -1.02620e+01 -6.20913e+01
       E -4.86946e+01 -1.83050e+01  2.43581e+01
       E  6.31804e+00 -3.14064e+01 -9.28956e+00
3
# CELL(abcABC): 1322.94304  1322.94304  1322.94304    90.00000    90.00000    90.00000  Step:        9400  Bead:      23 positions{angstrom}  cell{angstrom}
       E  1.64950e+01  2.22890e+01 -5.11742e+01
       E -5.52329e+00 -1.19916e+01  6.63060e+01
       E  2.47464e+01 -2.12635e+01 -9.04756e+00
3
# CELL(abcABC): 1322.94304  1322.94304  1322.94304    90.00000    90.00000    90.00000  Step:        9500  Bead:      23 positions{angstrom}  cell{angstrom}
       E  7.56773e+00  4.46098e+01 -4.51120e+01
       E  3.17387e+01 -2.80842e+01  4.73935e+01
       E  1.56323e+01 -4.48925e+01 -3.63750e+00
3
# CELL(abcABC): 1322.94304  1322.94304  1322.94304    90.00000    90.00000    90.00000  Step:        9600  Bead:      23 positions{angstrom}  cell{angstrom}
       E  2.46656e+01  2.35026e+00 -5.81453e+01
       E  2.27171e+01 -7.33317e+01 -1.33025e+01
       E  1.50636e+01 -1.22753e+01 -8.18951e+00
3
# CELL(abcABC): 1322.94304  1322.94304  1322.94304    90.00000    90.00000    90.00000  Step:        9700  Bead:      23 positions{angstrom}  cell{angstrom}
       E -4.19004e+00 -2.91256e+01 -6.87320e+01
       E  3.26618e+01 -6.43212e+01  8.39681e+00
       E -7.16408e+00  1.76692e+01 -1.30497e+01
3
# CELL(abcABC): 1322.94304  1322.94304  1322.94304    90.00000    90.00000    90.00000  Step:        9800  Bead:      23 positions{angstrom}  cell{angstrom}
       E -3.97033e+01 -5.40013e+01 -5.59351e+01
       E  1.94851e+01 -5.03291e+01  3.38883e+00
       E -1.85528e+01 -5.60622e+00  2.23844e+01
3