3
# CELL(abcABC): 1322.94304  1322.94304  1322.94304    90.00000    90.00000    90.00000  Step:           0  Bead:      29 positions{angstrom}  cell{angstrom}
       E  0.00000e+00  0.00000e+00  0.00000e+00
       E  0.00000e+00  0.00000e+00  0.00000e+00
       E  0.00000e+00  0.00000e+00  0.00000e+00
3
# CELL(abcABC): 1322.94304  1322.94304  1322.94304    90.00000    90.00000    90.00000  Step:         100  Bead:      29 positions{angstrom}  cell{angstrom}
       E -1.42271e+01 -3.09616e+01  5.17275e+00
       E  1.38365e+00 -7.35804e+00 -7.08136e+00
       E  2.63826e+01  1.12605e+01 -1.62613e+01
3
# CELL(abcABC): 1322.94304  1322.94304  1322.94304    90.00000    90.00000    90.00000  Step:         200  Bead:      29 positions{angstrom}  cell{angstrom}
       E -9.09205e+00  3.51771e+00  3.61766e+01
       E  5.40453e+00 -2.27783e+01  1.81186e+01
       E  3.32869e+01 -1.25252e+01  2.35251e+01
3
# CELL(abcABC): 1322.94304  1322.94304  1322.94304    90.00000    90.00000    90.00000  Step:         300  Bead:      29 positions{angstrom}  cell{angstrom}
       E  3.78867e+01 -1.88677e+01  1.93608e+01
       E -1.21596e+01 -7.99090e+00  1.76840e+01
       E  4.19570e+01  9.03497e+00 -6.22766e-02
3
# CELL(abcABC): 1322.94304  1322.94304  1322.94304    90.00000    90.00000    90.00000  Step:         400  Bead:      29 positions{angstrom}  cell{angstrom}
       E  2.75868e+01 -7.83321e+00 -6.55684e+00
       E -1.95026e+00 -7.20900e-02  3.28965e-01
       E  4.39639e+01 -1.15892e+00 -1.07386e+01
3
# CELL(abcABC): 1322.94304  1322.94304  1322.94304    90.00000    90.00000    90.00000  Step:         500  Bead:      29 positions{angstrom}  cell{angstrom}
       E  2.15701e+01 -1.39369e+00 -7.11293e+00
       E -1.95176e+01  6.75690e+00  2.42363e+01
       E  3.70977e+01 -1.43964e+01 -5.77046e+00
3
# CELL(abcABC): 1322.94304  1322.94304  1322.94304    90.00000    90.00000    90.00000  Step:         600  Bead:      29 positions{angstrom}  cell{angstrom}
       E  1.77392e+01 -4.75793e-01  3.66611e+01
       E -4.00782e+01 -2.01884e+01  4.20293e+01
       E  3.32930e+01  2.46501e+01  1.32142e+01
3
# CELL(abcABC): 1322.94304  1322.94304  1322.94304    90.00000    90.00000    90.00000  Step:         700  Bead:      29 positions{angstrom}  cell{angstrom}
       E  6.03941e+00 -3.33242e+00 -1.04865e+01
       E -4.90821e+01  1.85215e+01  4.02220e+01
       E -3.28323e+01  3.33345e+01  2.08287e+01
3
# CELL(abcABC): 1322.94304  1322.94304  1322.94304    90.00000    90.00000    90.00000  Step:         800  Bead:      29 positions{angstrom}  cell{angstrom}
       E  4.57141e+01  6.09658e+00  2.16308e+01
       E -2.53977e+01  1.62334e+00  4.52312e+01
       E -2.41710e+01 -6.64147e+00  3.66641e+01
3
# CELL(abcABC): 1322.94304  1322.94304  1322.94304    90.00000    90.00000    90.00000  Step:         900  Bead:      29 positions{angstrom}  cell{angstrom}
       E  3.77116e+01 -1.10824e+01 -6.16209e+00
       E -8.11713e+00  5.95428e+01  4.05148e+01
       E  4.33563e+00  1.88348e+00  5.18009e+01
3
# CELL(abcABC): 1322.94304  1322.94304  1322.94304    90.00000    90.00000    90.00000  Step:        1000  Bead:      29 positions{angstrom}  cell{angstrom}
       E  1.58911e+01  5.00169e+00  1.34911e+01
       E -1.92393e+01  5.55263e+01  2.82321e+01
       E  2.66485e+01 -1.87503e+01  1.50814e+01
3
# CELL(abcABC): 1322.94304  1322.94304  1322.94304    90.00000    90.00000    90.00000  Step:        1100  Bead:      29 positions{angstrom}  cell{angstrom}
       E  3.64992e+01  1.49582e+01  8.56919e+00
       E -3.36651e+01  4.79177e+01  8.67094e+00
       E  4.06999e+01 -2.04958e+01 -1.70228e+01
3
# CELL(abcABC): 1322.94304  1322.94304  1322.94304    90.00000    90.00000    90.00000  Step:        1200  Bead:      29 positions{angstrom}  cell{angstrom}
       E -5.90424e+00  8.40759e+00 -2.53157e+01
       E -1.08065e+01  4.18051e+01 -1.45098e+01
       E  6.31590e+01  3.62588e+01 -3.02346e+01
3
# CELL(abcABC): 1322.94304  1322.94304  1322.94304    90.00000    90.00000    90.00000  Step:        1300  Bead:      29 positions{angstrom}  cell{angstrom}
       E -1.10071e+01  1.12065e+01 -5.17072e+01
       E -2.15565e+01  2.53146e+01 -2.47620e+01
       E  2.23988e+01  3.59093e+01 -2.11101e+01
3
# CELL(abcABC): 1322.94304  1322.94304  1322.94304    90.00000    90.00000    90.00000  Step:        1400  Bead:      29 positions{angstrom}  cell{angstrom}
       E -5.62201e-01  4.11383e+01 -6.90008e+01
       E -5.47262e+01  3.44734e+01 -2.81271e+01
       E  2.37561e+00 -3.98419e+00 -2.49253e+01
3
# CELL(abcABC): 1322.94304  1322.94304  1322.94304    90.00000    90.00000    90.00000  Step:        1500  Bead:      29 positions{angstrom}  cell{angstrom}
       E -3.71367e+01  2.84157e+01 -7.54748e+01
       E -3.52760e+01  3.79019e+01 -1.29341e+01
       E  6.48653e+00  1.26139e+01 -1.47205e+01
3
# CELL(abcABC): 1322.94304  1322.94304  1322.94304    90.00000    90.00000    90.00000  Step:        1600  Bead:      29 positions{angstrom}  cell{angstrom}
       E -3.06952e+01  7.18630e+01 -8.79107e+01
       E -1.78157e+01  5.02207e+01  2.16788e+01
       E -1.43802e+00 -1.27121e+01  2.96569e-01
3
# CELL(abcABC): 1322.94304  1322.94304  1322.94304    90.00000    90.00000    90.00000  Step:        1700  Bead:      29 positions{angstrom}  cell{angstrom}
       E -2.27201e+01  2.28345e+01 -1.88444e+01
       E -4.06781e+01  3.05875e+01 -7.36469e+00
       E -1.62056e+00 -4.98087e+01  1.14278e-01
3
# CELL(abcABC): 1322.94304  1322.94304  1322.94304    90.00000    90.00000    90.00000  Step:        1800  Bead:      29 positions{angstrom}  cell{angstrom}
       E -3.61918e+01  3.27462e+01  3.01437e+01
       E -7.99876e+01  6.65772e+01 -1.55007e+01
       E -2.91861e+01 -2.78678e+01  1.65078e+00
3
# CELL(abcABC): 1322.94304  1322.94304  1322.94304    90.00000    90.00000    90.00000  Step:        1900  Bead:      29 positions{angstrom}  cell{angstrom}
       E -3.20887e+01  5.58114e+00  1.27848e+00
       E -6.53445e+01  2.85355e+01 -2.97040e+01
       E -4.15513e+01 -3.02374e+01  3.99981e+01
3
# CELL(abcABC): 1322.94304  1322.94304  1322.94304    90.00000    90.00000    90.00000  Step:        2000  Bead:      29 positions{angstrom}  cell{angstrom}
       E -9.35531e+00 -1.49824e+01  4.18387e+01
       E -6.09754e+01  4.58498e+01 -1.57774e-01
       E -4.62122e+01  1.17335e+01  1.78343e+01
3
# CELL(abcABC): 1322.94304  1322.94304  1322.94304    90.00000    90.00000    90.00000  Step:        2100  Bead:      29 positions{angstrom}  cell{angstrom}
       E  4.27913e+00 -9.04817e+01  9.96139e+00
       E -4.26697e+01  3.64024e+01 -9.02113e+00
       E -3.28077e+01  3.44128e+01 -1.84078e+01
3
# CELL(abcABC): 1322.94304  1322.94304  1322.94304    90.00000    90.00000    90.00000  Step:        2200  Bead:      29 positions{angstrom}  cell{angstrom}
       E -2.17314e+01 -7.17564e+01 -1.74153e+01
       E -6.68064e+01  7.02459e+01  1.44931e+01
       E -5.20074e+01  3.92306e+01 -1.34725e+01
3
# CELL(abcABC): 1322.94304  1322.94304  1322.94304    90.00000    90.00000    90.00000  Step:        2300  Bead:      29 positions{angstrom}  cell{angstrom}
       E  1.94379e+01 -6.69216e+01 -3.36101e-01
       E -3.52595e+01  6.67110e+01  2.27485e+01
       E -4.29069e+01 -7.21881e+00 -5.11161e+01
3
# CELL(abcABC): 1322.94304  1322.94304  1322.94304    90.00000    90.00000    90.00000  Step:        2400  Bead:      29 positions{angstrom}  cell{angstrom}
       E -3.94615e+01 -3.72014e+01  4.54134e+00
       E -4.55489e+01  4.47714e+01  2.93332e+01
       E  9.94101e-01 -2.83345e+01 -5.38015e+01
3
# CELL(abcABC): 1322.94304  1322.94304  1322.94304    90.00000    90.00000    90.00000  Step:        2500  Bead:      29 positions{angstrom}  cell{angstrom}
       E -1.92756e+01 -4.04867e+01  2.10747e+01
       E -6.77190e+01 -1.27870e+01  3.01134e+01
       E  3.07673e+00 -4.00902e+01  3.48407e+01
3
# CELL(abcABC): 1322.94304  1322.94304  1322.94304    90.00000    90.00000    90.00000  Step:        2600  Bead:      29 positions{angstrom}  cell{angstrom}
       E -4.25210e+01 -1.05696e+01  7.61152e+01
       E -6.44701e+01 -3.19835e+01  4.04851e+01
       E  2.25321e+01 -2.42890e+01  3.31445e+01
3
# CELL(abcABC): 1322.94304  1322.94304  1322.94304    90.00000    90.00000    90.00000  Step:        2700  Bead:      29 positions{angstrom}  cell{angstrom}
       E -4.09442e+01 -6.44336e+01  1.15424e+02
       E -7.06412e+01 -4.59882e+01  2.41268e+01
       E  1.00162e+01 -5.85261e+01  3.34202e+01
3
# CELL(abcABC): 1322.94304  1322.94304  1322.94304    90.00000    90.00000    90.00000  Step:        2800  Bead:      29 positions{angstrom}  cell{angstrom}
       E -4.18135e+01 -4.72384e+01  6.50493e+01
       E -4.68225e+01 -5.89119e+00  3.43719e+01
       E  1.72562e+01 -2.17500e+01  3.04576e+00
3
# CELL(abcABC): 1322.94304  1322.94304  1322.94304    90.00000    90.00000    90.00000  Step:        2900  Bead:      29 positions{angstrom}  cell{angstrom}
       E -4.37304e+01 -7.71993e+01  4.02940e+01
       E -3.70488e+01 -3.22730e+00  4.10812e+01
       E  1.28980e+01 -7.94622e+01  3.08894e+01
3
# CELL(abcABC): 1322.94304  1322.94304  1322.94304    90.00000    90.00000    90.00000  Step:        3000  Bead:      29 positions{angstrom}  cell{angstrom}
       E -6.66565e+01 -5.13165e+01  2.32486e+01
       E -2.06375e+01  1.65096e+01  3.80090e+01
       E  2.59979e+01 -3.34039e+01 -1.48848e+01
3
# CELL(abcABC): 1322.94304  1322.94304  1322.94304    90.00000    90.00000    90.00000  Step:        3100  Bead:      29 positions{angstrom}  cell{angstrom}
       E -8.95713e+01 -7.09240e+01  1.92584e+01
       E -2.62776e+01 -1.38486e+01  5.75121e+01
       E  5.51719e+01 -2.09737e+01  1.72757e+01
3
# CELL(abcABC): 1322.94304  1322.94304  1322.94304    90.00000    90.00000    90.00000  Step:        3200  Bead:      29 positions{angstrom}  cell{angstrom}
       E -8.71399e+01 -8.23609e+01  2.08106e+01
       E -5.93583e+01  3.24029e+01  5.47561e+01
       E  3.70827e+01 -1.38149e+01  2.46713e+01
3
# CELL(abcABC): 1322.94304  1322.94304  1322.94304    90.00000    90.00000    90.00000  Step:        3300  Bead:      29 positions{angstrom}  cell{angstrom}
       E -8.08112e+01  2.73358e+01  5.78865e+01
       E -5.01377e+01  7.95655e+01  6.95917e+01
       E  3.68227e+01 -1.78898e+00  3.17023e+01
3
# CELL(abcABC): 1322.94304  1322.94304  1322.94304    90.00000    90.00000    90.00000  Step:        3400  Bead:      29 positions{angstrom}  cell{angstrom}
       E -1.06578e+02  2.32798e+01  8.37297e+01
       E -5.42458e+01  4.39546e+01  3.95239e+01
       E  3.64122e+01 -1.18268e+01  2.83085e+01
3
# CELL(abcABC): 1322.94304  1322.94304  1322.94304    90.00000    90.00000    90.00000  Step:        3500  Bead:      29 positions{angstrom}  cell{angstrom}
       E -9.52292e+01 -3.29233e+01  5.97570e+01
       E -5.47474e+01  2.59561e+01  7.02591e+01
       E  1.78579e+01 -1.55648e+01  8.58899e+00
3
# CELL(abcABC): 1322.94304  1322.94304  1322.94304    90.00000    90.00000    90.00000  Step:        3600  Bead:      29 positions{angstrom}  cell{angstrom}
       E -9.50306e+01 -7.27706e+01  1.79028e+01
       E -6.17967e+00  2.94461e+01  6.07633e+01
       E -5.08057e+01 -2.67167e+01  1.40096e+01
3
# CELL(abcABC): 1322.94304  1322.94304  1322.94304    90.00000    90.00000    90.00000  Step:        3700  Bead:      29 positions{angstrom}  cell{angstrom}
       E -7.21936e+01 -4.05301e+01  2.99881e+01
       E -3.42296e+01  3.54695e+00  2.17410e+01
       E -4.18722e+01 -3.02635e+01 -1.57192e+01
3
# CELL(abcABC): 1322.94304  1322.94304  1322.94304    90.00000    90.00000    90.00000  Step:        3800  Bead:      29 positions{angstrom}  cell{angstrom}
       E -5.28505e+01 -4.16965e+00  2.08741e+01
       E -2.90656e-01 -1.10872e+01  1.06999e+01
       E -6.66228e+00 -6.19401e+01 -1.25122e+01
3
# CELL(abcABC): 1322.94304  1322.94304  1322.94304    90.00000    90.00000    90.00000  Step:        3900  Bead:      29 positions{angstrom}  cell{angstrom}
       E -6.69111e+01 -1.93041e+01 -4.48498e+01
       E -3.99570e+01 -1.90125e+01  3.16785e+01
       E -1.81081e+01 -6.22082e+01  1.93376e+01
3
# CELL(abcABC): 1322.94304  1322.94304  1322.94304    90.00000    90.00000    90.00000  Step:        4000  Bead:      29 positions{angstrom}  cell{angstrom}
       E -7.76305e+01 -3.28221e+01 -1.74986e+01
       E -3.45176e+01  2.49159e+01  3.74171e+01
       E -5.26245e+00 -4.90216e+01 -1.39004e+01
3
# CELL(abcABC): 1322.94304  1322.94304  1322.94304    90.00000    90.00000    90.00000  Step:        4100  Bead:      29 positions{angstrom}  cell{angstrom}
       E -7.54183e+01 -3.33941e+01 -5.88092e+01
       E -6.80746e+01  2.74627e+01  5.44585e+00
       E -5.20061e+01 -3.59316e+01  1.39804e+00
3
# CELL(abcABC): 1322.94304  1322.94304  1322.94304    90.00000    90.00000    90.00000  Step:        4200  Bead:      29 positions{angstrom}  cell{angstrom}
       E -5.99795e+01 -9.30034e-01 -8.56954e+01
       E -4.65998e+01  1.71558e+01 -3.59159e+01
       E -1.95198e+01  6.24813e+00 -2.51594e+00
3
# CELL(abcABC): 1322.94304  1322.94304  1322.94304    90.00000    90.00000    90.00000  Step:        4300  Bead:      29 positions{angstrom}  cell{angstrom}
       E -7.02051e+01  3.52710e+01 -7.93814e+01
       E -3.37881e+01  2.60715e+01 -4.23908e+01
       E  8.70294e+00  1.41970e+01 -1.50776e+01
3
# CELL(abcABC): 1322.94304  1322.94304  1322.94304    90.00000    90.00000    90.00000  Step:        4400  Bead:      29 positions{angstrom}  cell{angstrom}
       E -2.29727e+01  3.72969e+01 -5.95746e+01
       E -5.30978e+01 -9.64220e-01 -1.31346e+01
       E  3.87099e+00  1.27923e+01  5.62216e+00
3
# CELL(abcABC): 1322.94304  1322.94304  1322.94304    90.00000    90.00000    90.00000  Step:        4500  Bead:      29 positions{angstrom}  cell{angstrom}
       E -8.22545e+01  2.72167e+01 -6.49444e+01
       E -3.13297e+01 -1.20010e+01 -2.64760e+01
       E  1.48586e+01 -2.27838e+00  8.26437e+00
3
# CELL(abcABC): 1322.94304  1322.94304  1322.94304    90.00000    90.00000    90.00000  Step:        4600  Bead:      29 positions{angstrom}  cell{angstrom}
       E -5.94469e+01  3.27945e+01 -5.17187e+01
       E -5.56919e+01  2.11843e+01 -1.31551e+01
       E -6.60254e+00  5.79503e+00  4.97234e+01
3
# CELL(abcABC): 1322.94304  1322.94304  1322.94304    90.00000    90.00000    90.00000  Step:        4700  Bead:      29 positions{angstrom}  cell{angstrom}
       E -5.58056e+01  1.84745e+01 -6.12363e+01
       E -1.14104e+01 -1.82768e+01 -2.34381e+01
       E  3.62356e+00  4.04324e+00  1.44010e+01
3
# CELL(abcABC): 1322.94304  1322.94304  1322.94304    90.00000    90.00000    90.00000  Step:        4800  Bead:      29 positions{angstrom}  cell{angstrom}
       E -3.03936e+01  3.75424e+01 -9.72221e+01
       E -1.22070e+01 -2.87336e+01 -5.77607e+00
       E -6.70639e+00 -1.34527e+01 -1.04420e+01
3
# CELL(abcABC): 1322.94304  1322.94304  1322.94304    90.00000    90.00000    90.00000  Step:        4900  Bead:      29 positions{angstrom}  cell{angstrom}
       E -4.19496e+01  1.91140e+01 -6.95571e+01
       E -4.98617e+00  1.41540e+01 -3.34208e+01
       E  3.33787e+01 -5.20559e+01  2.30594e+01
3
# CELL(abcABC): 1322.94304  1322.94304  1322.94304    90.00000    90.00000    90.00000  Step:        5000  Bead:      29 positions{angstrom}  cell{angstrom}
       E -6.15380e+00  3.12470e+01 -4.90012e+01
       E  8.47340e-01 -1.57104e+01 -4.38347e+01
       E  5.79007e+01 -4.73604e+01  2.47709e+01
3
# CELL(abcABC): 1322.94304  1322.94304  1322.94304    90.00000    90.00000    90.00000  Step:        5100  Bead:      29 positions{angstrom}  cell{angstrom}
       E -1.24557e+01  5.33723e+01 -2.37264e+01
       E  3.01333e+01  1.24194e+01 -1.41936e+01
       E  3.79216e+01 -2.16969e+01  2.89900e+01
3
# CELL(abcABC): 1322.94304  1322.94304  1322.94304    90.00000    90.00000    90.00000  Step:        5200  Bead:      29 positions{angstrom}  cell{angstrom}
       E -3.37625e+01  2.67763e+00 -6.78637e+01
       E  1.49817e+00  4.40574e+01 -9.50885e-01
       E  1.06074e+01 -2.23605e+00  4.74608e+00
3
# CELL(abcABC): 1322.94304  1322.94304  1322.94304    90.00000    90.00000    90.00000  Step:        5300  Bead:      29 positions{angstrom}  cell{angstrom}
       E -5.73678e+00  1.24154e+00 -3.06195e+01
       E  2.70243e+00  8.48848e+00 -1.01882e+01
       E -2.81722e+01  2.34090e+01  4.38527e+01
3
# CELL(abcABC): 1322.94304  1322.94304  1322.94304    90.00000    90.00000    90.00000  Step:        5400  Bead:      29 positions{angstrom}  cell{angstrom}
       E -3.86035e+01  2.10925e+01 -2.50378e+01
       E -1.73948e+01  5.54329e+01 -3.29297e+01
       E -1.98959e+01  3.08194e+01  4.24280e+01
3
# CELL(abcABC): 1322.94304  1322.94304  1322.94304    90.00000    90.00000    90.00000  Step:        5500  Bead:      29 positions{angstrom}  cell{angstrom}
       E -9.63235e+00  3.14071e+01 -1.50801e+01
       E  2.22203e+01  2.05299e+01 -2.22213e+01
       E  1.41631e+01  2.76814e+01  1.52089e+01
3
# CELL(abcABC): 1322.94304  1322.94304  1322.94304    90.00000    90.00000    90.00000  Step:        5600  Bead:      29 positions{angstrom}  cell{angstrom}
       E -3.48262e+00  1.23680e+01 -4.81200e+00
       E  8.45457e+00  3.89428e+01 -1.15733e+01
       E -3.58990e+00 -1.74174e+01  1.41344e+01
3
# CELL(abcABC): 1322.94304  1322.94304  1322.94304    90.00000    90.00000    90.00000  Step:        5700  Bead:      29 positions{angstrom}  cell{angstrom}
       E -5.00532e-01 -1.75810e+00 -4.36922e+01
       E  2.54987e+01  3.66757e+01  2.69505e+01
       E -8.62467e+00 -1.43293e+01  2.57015e+01
3
# CELL(abcABC): 1322.94304  1322.94304  1322.94304    90.00000    90.00000    90.00000  Step:        5800  Bead:      29 positions{angstrom}  cell{angstrom}
       E -8.32477e+00 -4.99817e+00 -1.85629e+01
       E  4.29468e+00  7.63045e+00 -1.25907e+01
       E  6.58208e+00 -3.06980e+01 -2.54727e+01
3
# CELL(abcABC): 1322.94304  1322.94304  1322.94304    90.00000    90.00000    90.00000  Step:        5900  Bead:      29 positions{angstrom}  cell{angstrom}
       E -1.47550e+01  8.09634e+00  1.08006e+01
       E  1.30340e+01  3.01843e+01 -2.47167e+01
       E -3.35977e-01 -4.13520e+01  3.06718e+01
3
# CELL(abcABC): 1322.94304  1322.94304  1322.94304    90.00000    90.00000    90.00000  Step:        6000  Bead:      29 positions{angstrom}  cell{angstrom}
       E -1.61825e+01 -1.60493e+01 -4.40702e+00
       E  3.92733e+01  1.01821e+01 -6.63270e+01
       E  1.33112e+01 -3.90502e+01 -9.66242e+00
3
# CELL(abcABC): 1322.94304  1322.94304  1322.94304    90.00000    90.00000    90.00000  Step:        6100  Bead:      29 positions{angstrom}  cell{angstrom}
       E -2.65013e+01 -6.18765e+01 -2.06089e+01
       E  5.48823e+01 -4.62129e+00 -6.74573e+01
       E  3.46930e+01 -3.61241e+01 -1.03556e+01
3
# CELL(abcABC): 1322.94304  1322.94304  1322.94304    90.00000    90.00000    90.00000  Step:        6200  Bead:      29 positions{angstrom}  cell{angstrom}
       E -8.39942e-01 -7.93934e+01 -3.28834e+01
       E  6.06649e+01 -4.68847e+00 -4.82566e+01
       E  7.00351e+00 -5.46336e+01  2.47310e+01
3
# CELL(abcABC): 1322.94304  1322.94304  1322.94304    90.00000    90.00000    90.00000  Step:        6300  Bead:      29 positions{angstrom}  cell{angstrom}
       E  2.42270e+01 -8.65544e+01 -8.92840e+01
       E  5.91234e+01 -1.48387e+01 -4.56048e+01
       E  1.33465e+01 -5.46620e+01  1.07084e+01
3
# CELL(abcABC): 1322.94304  1322.94304  1322.94304    90.00000    90.00000    90.00000  Step:        6400  Bead:      29 positions{angstrom}  cell{angstrom}
       E  3.29562e+01 -9.19587e+01 -9.28701e+01
       E  1.93477e+01  3.42871e+00 -6.73131e+01
       E  2.29606e+01 -5.85385e+01  3.71581e+00
3
# CELL(abcABC): 1322.94304  1322.94304  1322.94304    90.00000    90.00000    90.00000  Step:        6500  Bead:      29 positions{angstrom}  cell{angstrom}
       E  4.47137e+01 -1.10271e+02 -1.02493e+02
       E -1.53423e+01  4.50216e+01 -4.27615e+01
       E  1.59837e+01 -2.27320e+01 -2.79169e+01
3
# CELL(abcABC): 1322.94304  1322.94304  1322.94304    90.00000    90.00000    90.00000  Step:        6600  Bead:      29 positions{angstrom}  cell{angstrom}
       E  1.41434e+01 -1.06851e+02 -1.11290e+02
       E  1.10433e+01  8.44524e+00 -3.08794e+01
       E  4.43038e+01 -2.70021e+01  5.39767e+00
3
# CELL(abcABC): 1322.94304  1322.94304  1322.94304    90.00000    90.00000    90.00000  Step:        6700  Bead:      29 positions{angstrom}  cell{angstrom}
       E  3.83652e+01 -9.02471e+01 -1.15467e+02
       E  1.01808e+01  2.12302e+00 -1.09662e+01
       E  1.51271e+01 -2.05959e+01 -1.03155e+01
3
# CELL(abcABC): 1322.94304  1322.94304  1322.94304    90.00000    90.00000    90.00000  Step:        6800  Bead:      29 positions{angstrom}  cell{angstrom}
       E  5.63362e+00 -1.08579e+02 -6.95405e+01
       E -6.89047e+00  3.62758e+01  6.54422e+00
       E  2.98236e+01 -6.51076e+01  9.95042e+00
3
# CELL(abcABC): 1322.94304  1322.94304  1322.94304    90.00000    90.00000    90.00000  Step:        6900  Bead:      29 positions{angstrom}  cell{angstrom}
       E  6.00673e+00 -9.71467e+01 -2.89063e+01
       E  2.21154e+01 -3.29031e+00  5.95162e-02
       E  2.73229e+01 -3.66893e+01 -5.38160e+00
3
# CELL(abcABC): 1322.94304  1322.94304  1322.94304    90.00000    90.00000    90.00000  Step:        7000  Bead:      29 positions{angstrom}  cell{angstrom}
       E  3.90972e+01 -6.39936e+01 -3.74226e+01
       E  5.05072e+01  6.27638e+01 -1.61545e+00
       E  1.99037e+00 -2.52602e+01  7.57285e+00
3
# CELL(abcABC): 1322.94304  1322.94304  1322.94304    90.00000    90.00000    90.00000  Step:        7100  Bead:      29 positions{angstrom}  cell{angstrom}
       E -1.59713e+01 -2.69275e+01 -4.81355e+01
       E  3.19375e+01  7.22663e+01  1.95291e+01
       E  3.54260e+01  1.12752e+01 -8.94401e+00
3
# CELL(abcABC): 1322.94304  1322.94304  1322.94304    90.00000    90.00000    90.00000  Step:        7200  Bead:      29 positions{angstrom}  cell{angstrom}
       E -6.96530e+00 -3.15564e+01 -6.23418e+01
       E  7.86219e+00  6.62491e+01  3.40279e+00
       E  8.48974e+00  6.23581e+00  1.52205e+01
3
# CELL(abcABC): 1322.94304  1322.94304  1322.94304    90.00000    90.00000    90.00000  Step:        7300  Bead:      29 positions{angstrom}  cell{angstrom}
       E  3.13650e+01  1.52515e+01 -6.06821e+01
       E  3.18783e+00  4.85562e+01 -1.42373e+01
       E  3.23140e+01  1.49851e+01 -5.71687e+00
3
# CELL(abcABC): 1322.94304  1322.94304  1322.94304    90.00000    90.00000    90.00000  Step:        7400  Bead:      29 positions{angstrom}  cell{angstrom}
       E -4.07681e+00 -6.39706e+00 -2.70983e+01
       E  2.53764e+01  5.56713e+01 -2.12241e+01
       E  3.01546e+01  1.92459e+01 -1.13515e+00
3
# CELL(abcABC): 1322.94304  1322.94304  1322.94304    90.00000    90.00000    90.00000  Step:        7500  Bead:      29 positions{angstrom}  cell{angstrom}
       E -2.46571e+01 -1.21978e+01  5.24731e+00
       E  3.18676e+01  3.95910e+01 -2.31900e+01
       E  1.27919e+01  3.15031e+01 -4.87323e+00
3
# CELL(abcABC): 1322.94304  1322.94304  1322.94304    90.00000    90.00000    90.00000  Step:        7600  Bead:      29 positions{angstrom}  cell{angstrom}
       E -8.67404e+00 -4.39239e+01 -1.89126e+01
       E -8.93852e+00  2.36347e+01 -7.70174e+00
       E -1.71975e+01 -1.37822e+01 -4.41783e+01
3
# CELL(abcABC): 1322.94304  1322.94304  1322.94304    90.00000    90.00000    90.00000  Step:        7700  Bead:      29 positions{angstrom}  cell{angstrom}
       E  1.53732e+01 -3.75282e+01 -1.67367e+01
       E  5.64660e+01 -1.29657e+01 -1.28505e+01
       E -1.94984e+00 -3.91636e+01 -4.91478e+01
3
# CELL(abcABC): 1322.94304  1322.94304  1322.94304    90.00000    90.00000    90.00000  Step:        7800  Bead:      29 positions{angstrom}  cell{angstrom}
       E  3.37566e+01 -3.97249e+01 -5.47378e+00
       E  3.07267e+01 -9.29223e+00 -4.34242e+01
       E  2.32945e+01 -4.02879e+01 -3.72881e+01
3
# CELL(abcABC): 1322.94304  1322.94304  1322.94304    90.00000    90.00000    90.00000  Step:        7900  Bead:      29 positions{angstrom}  cell{angstrom}
       E  3.76423e+01 -2.86246e+01 -2.18058e+01
       E  2.70564e+01 -2.33232e+01 -3.22058e+01
       E  1.96652e+01 -1.39487e+00 -5.10711e+01
3
# CELL(abcABC): 1322.94304  1322.94304  1322.94304    90.00000    90.00000    90.00000  Step:        8000  Bead:      29 positions{angstrom}  cell{angstrom}
       E  4.28725e+01 -2.68308e-01 -6.00884e+01
       E  1.67045e+01 -2.54698e+00 -5.24404e+01
       E  1.19697e+01 -3.58012e+01 -2.41938e+00
3
# CELL(abcABC): 1322.94304  1322.94304  1322.94304    90.00000    90.00000    90.00000  Step:        8100  Bead:      29 positions{angstrom}  cell{angstrom}
       E  4.78686e+01  3.86489e+01 -3.29272e+01
       E -4.81421e+00  3.04573e+01 -5.49067e+01
       E -1.46241e+01 -2.64055e+01  1.98626e+01
3
# CELL(abcABC): 1322.94304  1322.94304  1322.94304    90.00000    90.00000    90.00000  Step:        8200  Bead:      29 positions{angstrom}  cell{angstrom}
       E  5.00067e+01  4.28202e+01  5.17877e+00
       E  1.48485e+01  6.34390e+01 -1.48060e+01
       E -3.36446e+01 -1.98506e+01  1.14008e+01
3
# CELL(abcABC): 1322.94304  1322.94304  1322.94304    90.00000    90.00000    90.00000  Step:        8300  Bead:      29 positions{angstrom}  cell{angstrom}
       E  3.78680e+01  5.94096e+01 -3.96906e+01
       E  3.92290e+01  3.95968e+01 -1.05660e+01
       E -2.97897e-01 -2.46036e+01  1.91494e+01
3
# CELL(abcABC): 1322.94304  1322.94304  1322.94304    90.00000    90.00000    90.00000  Step:        8400  Bead:      29 positions{angstrom}  cell{angstrom}
       E  2.54388e+01 -2.55539e+01 -9.42870e+00
       E  9.33288e+00  2.90654e+01  3.48672e+01
       E -1.28257e+01 -4.13727e+01  5.76468e+01
3
# CELL(abcABC): 1322.94304  1322.94304  1322.94304    90.00000    90.00000    90.00000  Step:        8500  Bead:      29 positions{angstrom}  cell{angstrom}
       E  2.22970e+01  1.43910e+01 -3.51404e+01
       E  4.66722e+00  2.73046e+01  4.93416e+00
       E  1.04091e+01 -2.21306e+01  4.90272e+01
3
# CELL(abcABC): 1322.94304  1322.94304  1322.94304    90.00000    90.00000    90.00000  Step:        8600  Bead:      29 positions{angstrom}  cell{angstrom}
       E -1.75896e+01 -1.31494e+01 -1.24965e+01
       E  2.67689e+01 -5.55939e-02  1.90001e+01
       E  4.33706e+01  2.21825e+01  3.29654e+01
3
# CELL(abcABC): 1322.94304  1322.94304  1322.94304    90.00000    90.00000    90.00000  Step:        8700  Bead:      29 positions{angstrom}  cell{angstrom}
       E -5.11968e+01  2.07168e+01 -1.80612e+01
       E  3.12023e+01  6.58608e+00  3.58394e+01
       E  6.25647e+01 -3.03581e+01  2.03946e+01
3
# CELL(abcABC): 1322.94304  1322.94304  1322.94304    90.00000    90.00000    90.00000  Step:        8800  Bead:      29 positions{angstrom}  cell{angstrom}
       E -3.90296e+01  2.42164e+01 -1.06301e+01
       E  1.59589e+01 -3.06952e+01  4.19218e+01
       E  3.64199e+01 -9.97620e+01  2.98757e+01
3
# CELL(abcABC): 1322.94304  1322.94304  1322.94304    90.00000    90.00000    90.00000  Step:        8900  Bead:      29 positions{angstrom}  cell{angstrom}
       E -2.92413e+01  5.26346e+01 -5.35304e+00
       E -2.72264e+01 -2.80934e+01  4.26201e+01
       E  8.92935e+00 -8.05061e+01  1.23053e+01
3
# CELL(abcABC): 1322.94304  1322.94304  1322.94304    90.00000    90.00000    90.00000  Step:        9000  Bead:      29 positions{angstrom}  cell{angstrom}
       E -1.28225e+01  4.81247e+01  1.43056e+01
       E -4.51734e+01 -5.46001e+01  5.40974e+01
       E  1.81794e+00 -4.59286e+01  7.65669e-01
3
# CELL(abcABC): 1322.94304  1322.94304  1322.94304    90.00000    90.00000    90.00000  Step:        9100  Bead:      29 positions{angstrom}  cell{angstrom}
       E  3.72888e+00  5.36056e+01  2.01690e+01
       E -2.36141e+01  2.97974e+00  5.24079e+01
       E  1.18356e+01 -9.13971e+01 -9.41692e+00
3
# CELL(abcABC): 1322.94304  1322.94304  1322.94304    90.00000    90.00000    90.00000  Step:        9200  Bead:      29 positions{angstrom}  cell{angstrom}
       E -1.28515e+01  4.20028e+01 -1.31778e+01
       E -3.43254e+01 -3.06289e+00  2.77937e+01
       E  3.24184e+01 -5.39322e+01  1.43862e+01
3
# CELL(abcABC): 1322.94304  1322.94304  1322.94304    90.00000    90.00000    90.00000  Step:        9300  Bead:      29 positions{angstrom}  cell{angstrom}
       E  4.03005e+01  1.69060e+01 -5.41951e+01
       E  1.32846e+01 -2.42622e+01  5.87051e+01
       E  5.04852e+01 -1.03724e+01  3.13699e-01
3
# CELL(abcABC): 1322.94304  1322.94304  1322.94304    90.00000    90.00000    90.00000  Step:        9400  Bead:      29 positions{angstrom}  cell{angstrom}
       E  3.62400e+01  2.89834e+01 -4.80793e+01
       E -1.27933e+01 -5.71770e+01  1.74095e+01
       E  3.29700e+01 -4.59397e+00 -4.69022e+00
3
# CELL(abcABC): 1322.94304  1322.94304  1322.94304    90.00000    90.00000    90.00000  Step:        9500  Bead:      29 positions{angstrom}  cell{angstrom}
       E  3.66569e+01 -2.17292e+00 -2.78649e+01
       E  4.82222e+00 -3.70750e+01  1.42340e+01
       E  1.56794e+01 -1.68652e+01 -1.81510e+01
3
# CELL(abcABC): 1322.94304  1322.94304  1322.94304    90.00000    90.00000    90.00000  Step:        9600  Bead:      29 positions{angstrom}  cell{angstrom}
       E -1.46197e+01 -1.77372e+01 -4.16468e+01
       E  3.38840e+01 -1.91676e+01  2.47898e+01
       E  9.26518e+00 -2.14721e+01 -1.10841e+00
3
# CELL(abcABC): 1322.94304  1322.94304  1322.94304    90.00000    90.00000    90.00000  Step:        9700  Bead:      29 positions{angstrom}  cell{angstrom}
       E -3.02203e+01 -5.82043e+01 -5.95090e+01
       E  5.37237e+01 -6.15499e+01 -2.51162e+01
       E -3.22187e+01  6.17006e-01 -1.63186e+01
3
# CELL(abcABC): 1322.94304  1322.94304  1322.94304    90.00000    90.00000    90.00000  Step:        9800  Bead:      29 positions{angstrom}  cell{angstrom}
       E -1.86739e+01 -4.30293e+01 -5.20992e+01
       E  4.36162e+01 -6.61638e+01 -2.87621e+00
       E -5.31961e+01 -3.09439e+01 -1.04653e+00
3