3
# CELL(abcABC): 1322.94304  1322.94304  1322.94304    90.00000    90.00000    90.00000  Step:           0  Bead:       3 positions{angstrom}  cell{angstrom}
       E  0.00000e+00  0.00000e+00  0.00000e+00
       E  0.00000e+00  0.00000e+00  0.00000e+00
       E  0.00000e+00  0.00000e+00  0.00000e+00
3
# CELL(abcABC): 1322.94304  1322.94304  1322.94304    90.00000    90.00000    90.00000  Step:         100  Bead:       3 positions{angstrom}  cell{angstrom}
       E -3.70375e+01 -5.61408e+01 -2.98580e+00
       E  6.40722e+00 -1.11092e+01 -1.95541e+00
       E -1.22587e+01  1.82127e+01  1.78496e+01
3
# CELL(abcABC): 1322.94304  1322.94304  1322.94304    90.00000    90.00000    90.00000  Step:         200  Bead:       3 positions{angstrom}  cell{angstrom}
       E -8.37160e+00 -4.63697e+00 -5.04168e+00
       E  1.13087e+01  2.19010e+00 -2.79647e+01
       E  4.74210e+00  1.13093e+01  1.73853e+01
3
# CELL(abcABC): 1322.94304  1322.94304  1322.94304    90.00000    90.00000    90.00000  Step:         300  Bead:       3 positions{angstrom}  cell{angstrom}
       E  5.61147e+01  2.17326e+00 -2.87680e+01
       E -1.15474e+01  6.36955e-01  3.86444e+00
       E -1.06378e+01 -8.63430e+00  4.23017e+01
3
# CELL(abcABC): 1322.94304  1322.94304  1322.94304    90.00000    90.00000    90.00000  Step:         400  Bead:       3 positions{angstrom}  cell{angstrom}
       E  5.61640e+01  8.66060e+00 -6.05570e+00
       E  1.25097e+01 -3.02029e+00  1.04336e+01
       E -1.86077e+01  9.60784e+00  2.53666e+01
3
# CELL(abcABC): 1322.94304  1322.94304  1322.94304    90.00000    90.00000    90.00000  Step:         500  Bead:       3 positions{angstrom}  cell{angstrom}
       E  2.00567e+01 -3.50018e-01 -2.23743e+01
       E  2.28338e+01  1.59586e+01  2.58554e+01
       E -2.10095e+01  3.10698e+01  2.95849e+00
3
# CELL(abcABC): 1322.94304  1322.94304  1322.94304    90.00000    90.00000    90.00000  Step:         600  Bead:       3 positions{angstrom}  cell{angstrom}
       E -3.79227e-01  2.50348e+01 -6.50706e+01
       E -6.73857e+00 -1.56262e+00  3.75906e+01
       E -2.67639e+01  1.69141e+00  3.69834e+01
3
# CELL(abcABC): 1322.94304  1322.94304  1322.94304    90.00000    90.00000    90.00000  Step:         700  Bead:       3 positions{angstrom}  cell{angstrom}
       E -6.13807e+00  2.40797e+01 -1.83896e+01
       E  6.69598e+00 -9.75312e-01  7.86761e+00
       E -3.82331e+01  6.65736e+00  4.90006e+01
3
# CELL(abcABC): 1322.94304  1322.94304  1322.94304    90.00000    90.00000    90.00000  Step:         800  Bead:       3 positions{angstrom}  cell{angstrom}
       E -7.25201e+00  1.87352e+01 -1.37205e+01
       E  1.43585e+00  1.67270e+01 -1.25068e+01
       E -5.54112e+01  3.55212e+01  5.09301e+01
3
# CELL(abcABC): 1322.94304  1322.94304  1322.94304    90.00000    90.00000    90.00000  Step:         900  Bead:       3 positions{angstrom}  cell{angstrom}
       E -3.11349e+00 -1.31530e+01  4.65209e+00
       E  1.62529e+01  4.49502e-02  1.00931e+01
       E -1.88814e+01  5.15435e+01  8.76761e+01
3
# CELL(abcABC): 1322.94304  1322.94304  1322.94304    90.00000    90.00000    90.00000  Step:        1000  Bead:       3 positions{angstrom}  cell{angstrom}
       E -2.97457e+01 -1.76648e+01 -3.34988e+01
       E  3.39329e+01  1.21678e+01 -2.13153e+01
       E  1.46744e+01  1.40610e+01  6.64894e+01
3
# CELL(abcABC): 1322.94304  1322.94304  1322.94304    90.00000    90.00000    90.00000  Step:        1100  Bead:       3 positions{angstrom}  cell{angstrom}
       E -1.94487e+01  9.99944e+00 -4.61523e+01
       E  3.91585e+01 -1.08696e+01 -3.29449e+01
       E -1.98789e+01  4.44446e+00  1.96906e+01
3
# CELL(abcABC): 1322.94304  1322.94304  1322.94304    90.00000    90.00000    90.00000  Step:        1200  Bead:       3 positions{angstrom}  cell{angstrom}
       E  1.61291e+01  1.31348e+01 -4.51631e+01
       E  6.06622e+01 -3.38374e+01 -3.94919e+01
       E -2.62662e+01  3.01431e+01  2.44673e+01
3
# CELL(abcABC): 1322.94304  1322.94304  1322.94304    90.00000    90.00000    90.00000  Step:        1300  Bead:       3 positions{angstrom}  cell{angstrom}
       E  5.42975e+00  4.66136e+00 -5.96647e+01
       E  2.20002e+01 -5.58486e+01 -2.16859e+01
       E -4.20641e+01  6.26802e+01  2.63442e+01
3
# CELL(abcABC): 1322.94304  1322.94304  1322.94304    90.00000    90.00000    90.00000  Step:        1400  Bead:       3 positions{angstrom}  cell{angstrom}
       E -2.51225e+01 -1.25301e+01 -5.65684e+01
       E  2.29775e+00  1.37491e+01 -4.05633e+01
       E -7.50940e+01  1.93470e+01  2.41333e+01
3
# CELL(abcABC): 1322.94304  1322.94304  1322.94304    90.00000    90.00000    90.00000  Step:        1500  Bead:       3 positions{angstrom}  cell{angstrom}
       E -5.92631e+01  1.96841e+01 -4.33027e+01
       E  1.47964e+01  1.15202e+01 -1.60805e+01
       E -5.31886e+01  8.86938e+00 -3.33537e+01
3
# CELL(abcABC): 1322.94304  1322.94304  1322.94304    90.00000    90.00000    90.00000  Step:        1600  Bead:       3 positions{angstrom}  cell{angstrom}
       E -2.19429e+01  3.05170e+01 -3.95376e+01
       E  3.13119e+01  9.84734e+00  1.70837e+01
       E -6.32224e+01  2.34832e+01 -7.93312e+00
3
# CELL(abcABC): 1322.94304  1322.94304  1322.94304    90.00000    90.00000    90.00000  Step:        1700  Bead:       3 positions{angstrom}  cell{angstrom}
       E -2.66529e+01  1.73385e+01 -2.23585e+01
       E  2.05462e+00  2.68355e+00  2.55387e+01
       E -4.20158e+01  7.76937e+01 -4.18395e+00
3
# CELL(abcABC): 1322.94304  1322.94304  1322.94304    90.00000    90.00000    90.00000  Step:        1800  Bead:       3 positions{angstrom}  cell{angstrom}
       E -4.41222e+01  1.54134e+01  8.69274e+00
       E -3.91703e+01  1.40265e+01  2.73630e+01
       E -8.48718e+01  6.06637e+01  1.11144e+01
3
# CELL(abcABC): 1322.94304  1322.94304  1322.94304    90.00000    90.00000    90.00000  Step:        1900  Bead:       3 positions{angstrom}  cell{angstrom}
       E -2.64667e+01  6.66633e+00  1.01479e+01
       E -4.97024e+01 -3.24983e+01  7.88388e+00
       E -9.38338e+01  3.35976e+01  3.17009e+01
3
# CELL(abcABC): 1322.94304  1322.94304  1322.94304    90.00000    90.00000    90.00000  Step:        2000  Bead:       3 positions{angstrom}  cell{angstrom}
       E -1.48515e+01 -8.56329e+00  4.37899e+01
       E -5.56291e+01  6.84670e+00  5.69859e+01
       E -4.41948e+01  7.92840e+01  2.80610e+01
3
# CELL(abcABC): 1322.94304  1322.94304  1322.94304    90.00000    90.00000    90.00000  Step:        2100  Bead:       3 positions{angstrom}  cell{angstrom}
       E -2.78022e+01 -4.76035e+01  2.82798e+01
       E -4.26113e+01 -1.06925e+01  2.31202e+01
       E -6.76736e+01  7.13063e+01  2.12920e+01
3
# CELL(abcABC): 1322.94304  1322.94304  1322.94304    90.00000    90.00000    90.00000  Step:        2200  Bead:       3 positions{angstrom}  cell{angstrom}
       E  8.78221e+00 -6.15852e+01  3.89199e+01
       E -7.45493e+01 -6.43114e+00 -1.01835e+01
       E -3.73624e+01  4.68104e+01  2.15882e+01
3
# CELL(abcABC): 1322.94304  1322.94304  1322.94304    90.00000    90.00000    90.00000  Step:        2300  Bead:       3 positions{angstrom}  cell{angstrom}
       E  1.94173e+01 -5.39469e+01  8.39203e+00
       E  6.43455e+00 -3.47972e+01 -2.03584e+01
       E -2.56494e+01  8.03546e+01  2.60150e+01
3
# CELL(abcABC): 1322.94304  1322.94304  1322.94304    90.00000    90.00000    90.00000  Step:        2400  Bead:       3 positions{angstrom}  cell{angstrom}
       E -1.12961e+01 -2.53295e+01  1.97457e+01
       E  2.87742e+01 -4.30883e+01 -2.15402e+01
       E -1.96858e+01  2.29003e+01  2.71667e+01
3
# CELL(abcABC): 1322.94304  1322.94304  1322.94304    90.00000    90.00000    90.00000  Step:        2500  Bead:       3 positions{angstrom}  cell{angstrom}
       E  2.19738e+01 -1.62948e+01  4.73824e+01
       E  8.36044e+00 -2.07829e+01 -1.88961e+01
       E -3.86781e+01 -2.18800e+01  6.42517e+01
3
# CELL(abcABC): 1322.94304  1322.94304  1322.94304    90.00000    90.00000    90.00000  Step:        2600  Bead:       3 positions{angstrom}  cell{angstrom}
       E  9.91429e+00 -2.74558e+01  1.03903e+02
       E  2.38680e+00 -3.71302e+01 -2.56251e+01
       E -5.85157e+01 -4.49780e+01  2.27405e+01
3
# CELL(abcABC): 1322.94304  1322.94304  1322.94304    90.00000    90.00000    90.00000  Step:        2700  Bead:       3 positions{angstrom}  cell{angstrom}
       E -1.22251e+01 -2.30100e+01  5.71329e+01
       E -2.44340e+00 -3.08403e+01  4.13455e-01
       E -5.02259e+01 -8.60749e+00  3.15418e+01
3
# CELL(abcABC): 1322.94304  1322.94304  1322.94304    90.00000    90.00000    90.00000  Step:        2800  Bead:       3 positions{angstrom}  cell{angstrom}
       E -1.14410e+01 -7.38888e+01  4.52914e+01
       E  1.51870e+01 -2.03385e+01 -2.10475e+01
       E -2.55960e+01  9.07408e+00  1.63234e+01
3
# CELL(abcABC): 1322.94304  1322.94304  1322.94304    90.00000    90.00000    90.00000  Step:        2900  Bead:       3 positions{angstrom}  cell{angstrom}
       E -7.13222e+01 -8.26036e+01  3.06840e+01
       E  1.71226e+01 -4.40510e+01  1.12206e+01
       E  3.83500e+00 -2.19467e+00  4.28193e+01
3
# CELL(abcABC): 1322.94304  1322.94304  1322.94304    90.00000    90.00000    90.00000  Step:        3000  Bead:       3 positions{angstrom}  cell{angstrom}
       E -5.34858e+01 -2.37605e+01 -4.23836e+00
       E  2.13398e+01 -4.95716e+01  2.14839e+01
       E -4.86083e-02 -2.02722e+01  5.00657e+00
3
# CELL(abcABC): 1322.94304  1322.94304  1322.94304    90.00000    90.00000    90.00000  Step:        3100  Bead:       3 positions{angstrom}  cell{angstrom}
       E -6.91915e+01 -4.98441e+01  2.93029e+01
       E  4.07003e+01 -7.80032e+01  4.60828e+01
       E -5.53379e+01  7.53578e+00  2.03374e+01
3
# CELL(abcABC): 1322.94304  1322.94304  1322.94304    90.00000    90.00000    90.00000  Step:        3200  Bead:       3 positions{angstrom}  cell{angstrom}
       E -9.21398e+01 -1.10387e+01  7.11465e+01
       E  1.59437e+01 -5.18838e+01  1.95588e+01
       E  1.16453e+01  4.26074e+01  4.09681e+01
3
# CELL(abcABC): 1322.94304  1322.94304  1322.94304    90.00000    90.00000    90.00000  Step:        3300  Bead:       3 positions{angstrom}  cell{angstrom}
       E -8.05751e+01 -2.59119e+01  5.84182e+01
       E  3.09182e+01 -2.04351e+01  4.92252e+01
       E -4.63233e+01  5.16059e+01  7.43084e+01
3
# CELL(abcABC): 1322.94304  1322.94304  1322.94304    90.00000    90.00000    90.00000  Step:        3400  Bead:       3 positions{angstrom}  cell{angstrom}
       E -8.88676e+01 -2.06580e+01  9.82528e+01
       E -9.73870e+00 -4.14340e+01  4.25040e+01
       E -3.79794e+01  2.59632e+01  9.49067e+01
3
# CELL(abcABC): 1322.94304  1322.94304  1322.94304    90.00000    90.00000    90.00000  Step:        3500  Bead:       3 positions{angstrom}  cell{angstrom}
       E -9.02326e+01 -3.48775e+01  5.81940e+00
       E -7.51754e-01 -4.21182e+01  2.94272e+01
       E -5.73303e+01  3.70878e+01  7.40537e+01
3
# CELL(abcABC): 1322.94304  1322.94304  1322.94304    90.00000    90.00000    90.00000  Step:        3600  Bead:       3 positions{angstrom}  cell{angstrom}
       E -7.85025e+01 -3.80407e+01 -1.21086e+01
       E -9.78258e+00 -3.98840e+01 -5.06416e+00
       E -9.02933e+01  1.82030e+01  4.83191e+01
3
# CELL(abcABC): 1322.94304  1322.94304  1322.94304    90.00000    90.00000    90.00000  Step:        3700  Bead:       3 positions{angstrom}  cell{angstrom}
       E -4.83786e+01 -5.49649e+01 -2.12407e+01
       E -7.71783e+00 -4.47039e+01  1.45532e+01
       E -4.86801e+01  1.48346e+01  3.62309e+01
3
# CELL(abcABC): 1322.94304  1322.94304  1322.94304    90.00000    90.00000    90.00000  Step:        3800  Bead:       3 positions{angstrom}  cell{angstrom}
       E -6.49717e+01 -4.73342e+01 -3.15004e+01
       E -2.21439e+01 -2.72474e+01 -1.66280e+01
       E -2.74578e+01 -4.07200e+00  9.73719e+00
3
# CELL(abcABC): 1322.94304  1322.94304  1322.94304    90.00000    90.00000    90.00000  Step:        3900  Bead:       3 positions{angstrom}  cell{angstrom}
       E -4.45515e+01 -3.68999e+01 -7.80816e+00
       E -6.18542e+01 -9.91723e+00 -4.74632e+01
       E -2.19758e+01  1.13681e+01 -1.98468e-01
3
# CELL(abcABC): 1322.94304  1322.94304  1322.94304    90.00000    90.00000    90.00000  Step:        4000  Bead:       3 positions{angstrom}  cell{angstrom}
       E -4.09015e+01 -4.53387e+00  6.25636e+00
       E -8.50081e+01 -1.61824e+01 -1.28523e+01
       E -1.63490e+01 -5.92383e+00 -1.60917e-03
3
# CELL(abcABC): 1322.94304  1322.94304  1322.94304    90.00000    90.00000    90.00000  Step:        4100  Bead:       3 positions{angstrom}  cell{angstrom}
       E -5.24373e+01  1.33474e+01 -4.74261e+01
       E -5.21486e+01  5.03452e+01 -2.32355e+01
       E -4.27224e+01  4.78205e+01  2.12448e+01
3
# CELL(abcABC): 1322.94304  1322.94304  1322.94304    90.00000    90.00000    90.00000  Step:        4200  Bead:       3 positions{angstrom}  cell{angstrom}
       E -9.67450e+00  1.55278e+01 -7.19289e+00
       E -6.35104e+01  2.24227e+01 -3.23969e+01
       E -7.13838e+01  2.18090e+01  8.99349e+00
3
# CELL(abcABC): 1322.94304  1322.94304  1322.94304    90.00000    90.00000    90.00000  Step:        4300  Bead:       3 positions{angstrom}  cell{angstrom}
       E -2.07969e+01  1.27043e+01  2.98756e+00
       E -7.19843e+01 -5.57724e-02 -5.30812e+01
       E -6.42119e+01 -7.69460e+00  3.97513e+01
3
# CELL(abcABC): 1322.94304  1322.94304  1322.94304    90.00000    90.00000    90.00000  Step:        4400  Bead:       3 positions{angstrom}  cell{angstrom}
       E -2.27850e+01  3.01847e+01 -4.04745e+00
       E -8.85825e+01  4.73677e+01 -3.46925e+01
       E -7.12643e+01 -8.07101e+00  1.56875e+01
3
# CELL(abcABC): 1322.94304  1322.94304  1322.94304    90.00000    90.00000    90.00000  Step:        4500  Bead:       3 positions{angstrom}  cell{angstrom}
       E -2.97805e+01  3.88441e+01  1.63651e+01
       E -5.85635e+01  8.23814e+01 -3.27457e+01
       E -3.54458e+01 -1.25585e+01  1.45235e+01
3
# CELL(abcABC): 1322.94304  1322.94304  1322.94304    90.00000    90.00000    90.00000  Step:        4600  Bead:       3 positions{angstrom}  cell{angstrom}
       E -2.91361e+00  2.60527e+01  2.15754e+00
       E -9.66851e+01  1.27476e+01 -2.95582e+01
       E -4.62451e+01 -1.67081e+00  3.55574e+01
3
# CELL(abcABC): 1322.94304  1322.94304  1322.94304    90.00000    90.00000    90.00000  Step:        4700  Bead:       3 positions{angstrom}  cell{angstrom}
       E  1.31457e+01  3.25071e+01  1.78112e+01
       E -6.41291e+01  1.96257e+01 -3.56009e+01
       E -2.59422e+01  3.96289e+01  6.74597e+00
3
# CELL(abcABC): 1322.94304  1322.94304  1322.94304    90.00000    90.00000    90.00000  Step:        4800  Bead:       3 positions{angstrom}  cell{angstrom}
       E  1.81833e+01  1.60203e+01  6.18027e+00
       E -5.25132e+01 -8.89376e+00 -6.64486e+01
       E  1.33721e+01 -4.05862e+00 -5.71730e+01
3
# CELL(abcABC): 1322.94304  1322.94304  1322.94304    90.00000    90.00000    90.00000  Step:        4900  Bead:       3 positions{angstrom}  cell{angstrom}
       E  5.57013e+01 -1.62859e+01  2.18064e-01
       E -8.86549e+01 -2.04039e+00 -5.48009e+01
       E -1.05885e+01  1.31464e+01 -5.89851e+01
3
# CELL(abcABC): 1322.94304  1322.94304  1322.94304    90.00000    90.00000    90.00000  Step:        5000  Bead:       3 positions{angstrom}  cell{angstrom}
       E  1.84963e+01 -5.52037e+00  3.77657e+01
       E -2.98057e+01 -2.69490e+01 -5.42094e+01
       E -1.05450e+01 -7.18098e+00 -7.22536e+01
3
# CELL(abcABC): 1322.94304  1322.94304  1322.94304    90.00000    90.00000    90.00000  Step:        5100  Bead:       3 positions{angstrom}  cell{angstrom}
       E  9.81924e+00 -7.33257e-01  3.46341e+01
       E -5.32474e+01 -1.49447e+00 -5.88772e+00
       E  3.24436e+01 -2.31867e+01 -3.63612e+01
3
# CELL(abcABC): 1322.94304  1322.94304  1322.94304    90.00000    90.00000    90.00000  Step:        5200  Bead:       3 positions{angstrom}  cell{angstrom}
       E  1.34621e+01  1.37524e+01  7.57004e-01
       E  4.24130e+00  2.61018e+01 -1.72319e+01
       E  1.21118e+01  2.71265e+01 -1.29161e+01
3
# CELL(abcABC): 1322.94304  1322.94304  1322.94304    90.00000    90.00000    90.00000  Step:        5300  Bead:       3 positions{angstrom}  cell{angstrom}
       E  3.61981e+00 -7.74348e-01  3.57743e+01
       E -2.90985e+01  6.30153e+01 -5.75904e+01
       E -6.18147e+00  2.94783e+01 -1.66284e+01
3
# CELL(abcABC): 1322.94304  1322.94304  1322.94304    90.00000    90.00000    90.00000  Step:        5400  Bead:       3 positions{angstrom}  cell{angstrom}
       E -9.31594e+00  8.80492e+00  6.35998e+01
       E -3.46953e+01  2.42985e+01 -3.35512e+01
       E -2.95502e+01  3.43799e+01  2.56848e+01
3
# CELL(abcABC): 1322.94304  1322.94304  1322.94304    90.00000    90.00000    90.00000  Step:        5500  Bead:       3 positions{angstrom}  cell{angstrom}
       E -2.50141e+01  3.35263e+01  7.15273e+01
       E -1.61936e+01  2.82856e+01 -9.58041e+00
       E -1.64948e+01  1.47196e+01  5.76521e+00
3
# CELL(abcABC): 1322.94304  1322.94304  1322.94304    90.00000    90.00000    90.00000  Step:        5600  Bead:       3 positions{angstrom}  cell{angstrom}
       E -4.41065e+00  3.48918e+01  3.94603e+01
       E -1.24543e+01  2.38685e+01 -5.65170e+00
       E -5.88261e+00  1.56115e+01  1.19498e+01
3
# CELL(abcABC): 1322.94304  1322.94304  1322.94304    90.00000    90.00000    90.00000  Step:        5700  Bead:       3 positions{angstrom}  cell{angstrom}
       E -2.83874e+01 -1.34841e+01  1.71191e+01
       E -1.92646e+01  2.20939e+01 -8.60545e+00
       E -3.17779e+01  4.74741e+01 -7.42754e-01
3
# CELL(abcABC): 1322.94304  1322.94304  1322.94304    90.00000    90.00000    90.00000  Step:        5800  Bead:       3 positions{angstrom}  cell{angstrom}
       E -4.87901e+01 -8.94902e+00  2.26165e+01
       E -4.02777e+01  2.93243e+01  1.21547e+01
       E  3.94404e+00  6.03933e+01  6.71619e+00
3
# CELL(abcABC): 1322.94304  1322.94304  1322.94304    90.00000    90.00000    90.00000  Step:        5900  Bead:       3 positions{angstrom}  cell{angstrom}
       E -2.31553e+01 -3.79498e+01 -6.52485e+00
       E -5.86051e+01  1.74178e+01 -2.99020e+01
       E -6.93289e-02  4.28991e+01 -2.24121e+01
3
# CELL(abcABC): 1322.94304  1322.94304  1322.94304    90.00000    90.00000    90.00000  Step:        6000  Bead:       3 positions{angstrom}  cell{angstrom}
       E -1.61459e+00 -6.04607e+01 -1.34135e+01
       E -4.38076e+01  1.91111e+01 -1.93427e+01
       E  4.10929e+01  1.59050e+01 -3.30238e+01
3
# CELL(abcABC): 1322.94304  1322.94304  1322.94304    90.00000    90.00000    90.00000  Step:        6100  Bead:       3 positions{angstrom}  cell{angstrom}
       E  4.46861e+01 -5.04685e+01 -4.89038e+01
       E  1.93500e+01 -3.27220e+01  1.96479e+01
       E  1.97532e+01  7.97337e+00 -4.63280e+01
3
# CELL(abcABC): 1322.94304  1322.94304  1322.94304    90.00000    90.00000    90.00000  Step:        6200  Bead:       3 positions{angstrom}  cell{angstrom}
       E  3.13750e+01 -4.68742e+01 -7.70587e+01
       E  3.06451e+01 -4.55539e+01  1.17835e+01
       E  6.51767e+01  1.86472e+01 -6.31238e+01
3
# CELL(abcABC): 1322.94304  1322.94304  1322.94304    90.00000    90.00000    90.00000  Step:        6300  Bead:       3 positions{angstrom}  cell{angstrom}
       E  6.37298e+00 -3.89262e+01 -6.18292e+01
       E  2.66583e+01 -7.77862e+01 -2.55182e+00
       E  4.26792e+01  4.60228e+00 -3.26436e+01
3
# CELL(abcABC): 1322.94304  1322.94304  1322.94304    90.00000    90.00000    90.00000  Step:        6400  Bead:       3 positions{angstrom}  cell{angstrom}
       E  1.26047e+01 -6.64790e+01 -8.49399e+01
       E  5.18903e+01 -6.70506e+01 -1.42316e+01
       E  7.04580e+01 -2.34378e+01 -1.97329e+01
3
# CELL(abcABC): 1322.94304  1322.94304  1322.94304    90.00000    90.00000    90.00000  Step:        6500  Bead:       3 positions{angstrom}  cell{angstrom}
       E -3.83571e+01 -1.07858e+02 -9.14253e+01
       E  2.53098e+01 -3.45094e+01 -8.72838e+00
       E  1.76961e+01 -2.62657e+01 -4.20071e+01
3
# CELL(abcABC): 1322.94304  1322.94304  1322.94304    90.00000    90.00000    90.00000  Step:        6600  Bead:       3 positions{angstrom}  cell{angstrom}
       E -5.01144e+00 -9.49864e+01 -1.16123e+02
       E -1.47471e+00 -2.28108e+01 -7.95681e+00
       E  1.66064e+01 -1.04917e+01  1.81993e+01
3
# CELL(abcABC): 1322.94304  1322.94304  1322.94304    90.00000    90.00000    90.00000  Step:        6700  Bead:       3 positions{angstrom}  cell{angstrom}
       E  1.75114e+01 -8.77535e+01 -1.20589e+02
       E  1.72003e+01 -4.95930e+01  9.97114e-01
       E  1.55689e+01  1.61619e+01 -2.42083e+01
3
# CELL(abcABC): 1322.94304  1322.94304  1322.94304    90.00000    90.00000    90.00000  Step:        6800  Bead:       3 positions{angstrom}  cell{angstrom}
       E -1.60088e+00 -6.64460e+01 -4.75661e+01
       E  1.96668e+01 -6.81312e+01 -7.65840e+00
       E -8.55675e+00  4.19819e+01  1.00819e+01
3
# CELL(abcABC): 1322.94304  1322.94304  1322.94304    90.00000    90.00000    90.00000  Step:        6900  Bead:       3 positions{angstrom}  cell{angstrom}
       E -3.35600e+01 -6.34059e+01 -6.50596e+01
       E  3.94406e+00 -2.07478e+01  2.56704e+00
       E -8.98858e+00  2.91233e+01  6.23292e+00
3
# CELL(abcABC): 1322.94304  1322.94304  1322.94304    90.00000    90.00000    90.00000  Step:        7000  Bead:       3 positions{angstrom}  cell{angstrom}
       E -5.33592e+01 -4.23545e+01 -5.62037e+01
       E -4.28267e-01 -2.91249e+01 -2.28622e+01
       E  3.18940e+01  6.74700e+01  1.68032e+01
3
# CELL(abcABC): 1322.94304  1322.94304  1322.94304    90.00000    90.00000    90.00000  Step:        7100  Bead:       3 positions{angstrom}  cell{angstrom}
       E -1.01766e+01 -8.26246e+00 -3.29897e+01
       E -2.62849e+01 -3.17164e+00  2.00870e+01
       E -1.20838e+01  5.75684e+01  2.39942e+01
3
# CELL(abcABC): 1322.94304  1322.94304  1322.94304    90.00000    90.00000    90.00000  Step:        7200  Bead:       3 positions{angstrom}  cell{angstrom}
       E -1.90108e+01 -2.31362e+01 -3.56370e+01
       E -1.86373e+01  1.94825e+01  4.17180e+01
       E  9.16653e+00  8.35210e+01  1.28761e+01
3
# CELL(abcABC): 1322.94304  1322.94304  1322.94304    90.00000    90.00000    90.00000  Step:        7300  Bead:       3 positions{angstrom}  cell{angstrom}
       E -2.98542e+00 -3.14777e+01 -6.48848e+01
       E  2.33988e+01  2.67677e+01  3.15915e+01
       E  1.68727e+01  4.94706e+01  2.86334e+00
3
# CELL(abcABC): 1322.94304  1322.94304  1322.94304    90.00000    90.00000    90.00000  Step:        7400  Bead:       3 positions{angstrom}  cell{angstrom}
       E  1.77517e+01 -2.98281e+01 -3.05315e+01
       E  5.90057e+00  2.63515e+00  1.88400e+01
       E  3.24860e+01  6.16492e+01 -8.04187e+00
3
# CELL(abcABC): 1322.94304  1322.94304  1322.94304    90.00000    90.00000    90.00000  Step:        7500  Bead:       3 positions{angstrom}  cell{angstrom}
       E -3.15267e+01 -4.26525e+01 -2.72125e+01
       E -1.49260e+01 -1.28888e+01 -2.72384e+01
       E  5.73221e+01  4.96941e+01 -1.08381e+01
3
# CELL(abcABC): 1322.94304  1322.94304  1322.94304    90.00000    90.00000    90.00000  Step:        7600  Bead:       3 positions{angstrom}  cell{angstrom}
       E -2.76790e+01 -3.50056e+01 -2.20240e+01
       E  9.03985e-01 -3.44763e+01 -1.41471e+01
       E  4.92983e+01  4.29785e+01 -7.44927e+00
3
# CELL(abcABC): 1322.94304  1322.94304  1322.94304    90.00000    90.00000    90.00000  Step:        7700  Bead:       3 positions{angstrom}  cell{angstrom}
       E  6.71370e-01 -2.53883e+01 -3.19508e+01
       E  7.60927e+00 -4.24560e+01 -7.28355e+00
       E  4.38719e+01 -3.63288e+01 -2.84721e+01
3
# CELL(abcABC): 1322.94304  1322.94304  1322.94304    90.00000    90.00000    90.00000  Step:        7800  Bead:       3 positions{angstrom}  cell{angstrom}
       E  4.45647e+01 -7.51336e+00 -4.42607e+01
       E  1.19547e+01 -3.79162e+01 -2.51969e+01
       E  1.50099e+01  1.31437e+01 -4.79532e+01
3
# CELL(abcABC): 1322.94304  1322.94304  1322.94304    90.00000    90.00000    90.00000  Step:        7900  Bead:       3 positions{angstrom}  cell{angstrom}
       E  5.86611e+01  5.99501e+00 -3.73736e+01
       E  5.21394e+01 -1.92522e+01 -2.87222e+01
       E  4.12214e+01  2.34668e+01 -5.05367e+01
3
# CELL(abcABC): 1322.94304  1322.94304  1322.94304    90.00000    90.00000    90.00000  Step:        8000  Bead:       3 positions{angstrom}  cell{angstrom}
       E  2.98739e+01  2.35465e+01 -3.15953e+01
       E  5.68532e+01 -2.22668e+01 -4.49679e+01
       E  8.03357e+00  2.48395e+01 -1.18258e+01
3
# CELL(abcABC): 1322.94304  1322.94304  1322.94304    90.00000    90.00000    90.00000  Step:        8100  Bead:       3 positions{angstrom}  cell{angstrom}
       E  3.01729e+01  1.78808e+01 -1.77481e+01
       E  1.73101e+01 -3.09737e-01 -1.90734e+01
       E -3.31110e+01 -4.52412e+01  7.31889e-01
3
# CELL(abcABC): 1322.94304  1322.94304  1322.94304    90.00000    90.00000    90.00000  Step:        8200  Bead:       3 positions{angstrom}  cell{angstrom}
       E  3.05107e+01  2.19489e+01 -6.98808e+01
       E  2.56335e+01  5.21973e+01 -2.50602e+00
       E  1.69839e+01 -3.81901e+01  2.50286e+01
3
# CELL(abcABC): 1322.94304  1322.94304  1322.94304    90.00000    90.00000    90.00000  Step:        8300  Bead:       3 positions{angstrom}  cell{angstrom}
       E  2.60380e+01 -1.28889e+01 -5.01734e+01
       E  4.68092e+01  1.49466e+01  3.61823e+01
       E  7.78422e+00 -3.82243e+01  1.74094e+01
3
# CELL(abcABC): 1322.94304  1322.94304  1322.94304    90.00000    90.00000    90.00000  Step:        8400  Bead:       3 positions{angstrom}  cell{angstrom}
       E  4.54217e+01 -1.41362e+00  1.48252e+00
       E  2.24799e+01  2.85391e+01  4.75882e+01
       E -8.64685e+00  5.70125e+00  3.92810e+01
3
# CELL(abcABC): 1322.94304  1322.94304  1322.94304    90.00000    90.00000    90.00000  Step:        8500  Bead:       3 positions{angstrom}  cell{angstrom}
       E -1.00823e+01  6.73654e+00 -1.21002e+01
       E  7.30260e+01  3.98152e+01  2.54667e+01
       E  4.05116e+01 -1.92136e+01  1.66510e+01
3
# CELL(abcABC): 1322.94304  1322.94304  1322.94304    90.00000    90.00000    90.00000  Step:        8600  Bead:       3 positions{angstrom}  cell{angstrom}
       E -3.77602e+01 -4.93211e+00 -2.31199e+01
       E  5.34977e+01  1.57248e+01  6.84865e+00
       E  5.66916e+01 -1.61258e+01  5.62865e+01
3
# CELL(abcABC): 1322.94304  1322.94304  1322.94304    90.00000    90.00000    90.00000  Step:        8700  Bead:       3 positions{angstrom}  cell{angstrom}
       E -2.01296e+01  3.40237e+01 -3.30215e+01
       E  3.46756e+01 -7.11851e+00  6.90851e+00
       E  3.05175e+01 -5.54859e+01  2.29625e+01
3
# CELL(abcABC): 1322.94304  1322.94304  1322.94304    90.00000    90.00000    90.00000  Step:        8800  Bead:       3 positions{angstrom}  cell{angstrom}
       E -1.72205e+00  4.99368e+01  9.29989e+00
       E  5.59090e+00  2.58609e+00 -1.49962e+00
       E  5.69671e+01 -6.53099e+01  5.68616e+01
3
# CELL(abcABC): 1322.94304  1322.94304  1322.94304    90.00000    90.00000    90.00000  Step:        8900  Bead:       3 positions{angstrom}  cell{angstrom}
       E -9.29012e+00  2.94801e+01 -2.08005e+00
       E -2.48966e+01 -1.10045e+01  2.94025e+01
       E  2.67614e+01 -6.85416e+01  7.80749e+00
3
# CELL(abcABC): 1322.94304  1322.94304  1322.94304    90.00000    90.00000    90.00000  Step:        9000  Bead:       3 positions{angstrom}  cell{angstrom}
       E -9.71096e+00  3.03735e+01  3.07698e+00
       E -3.38424e+01 -2.98964e+01  2.57472e+01
       E  6.26034e-01 -8.68356e+01 -4.54560e+00
3
# CELL(abcABC): 1322.94304  1322.94304  1322.94304    90.00000    90.00000    90.00000  Step:        9100  Bead:       3 positions{angstrom}  cell{angstrom}
       E  1.03284e+01  4.35937e+01  1.90990e+01
       E -5.65059e+01  5.93661e+00  3.46344e+01
       E -3.23844e+00 -7.13455e+01 -2.16645e+01
3
# CELL(abcABC): 1322.94304  1322.94304  1322.94304    90.00000    90.00000    90.00000  Step:        9200  Bead:       3 positions{angstrom}  cell{angstrom}
       E -1.67547e+01  2.59011e+01  1.76080e+00
       E  1.19074e+01  3.93393e-01  4.20777e+01
       E  1.19282e+01 -2.36329e+01 -7.59941e+00
3
# CELL(abcABC): 1322.94304  1322.94304  1322.94304    90.00000    90.00000    90.00000  Step:        9300  Bead:       3 positions{angstrom}  cell{angstrom}
       E  1.44416e+01  4.66840e+01 -5.44619e+01
       E  6.71809e+00 -4.01437e+01  1.92578e+01
       E  3.96685e+01 -3.23675e+01  7.13764e+00
3
# CELL(abcABC): 1322.94304  1322.94304  1322.94304    90.00000    90.00000    90.00000  Step:        9400  Bead:       3 positions{angstrom}  cell{angstrom}
       E  2.39897e+01  5.31462e+01 -2.57603e+01
       E  4.85563e+01 -2.79570e+01  7.24276e+00
       E  2.88253e+01 -1.59833e+01  1.00972e+01
3
# CELL(abcABC): 1322.94304  1322.94304  1322.94304    90.00000    90.00000    90.00000  Step:        9500  Bead:       3 positions{angstrom}  cell{angstrom}
       E  1.88881e+01  3.05217e+00 -2.70262e+01
       E  5.28312e+01  1.65529e+01  1.05377e+01
       E -1.30776e+01 -1.13204e+01  2.25570e+01
3
# CELL(abcABC): 1322.94304  1322.94304  1322.94304    90.00000    90.00000    90.00000  Step:        9600  Bead:       3 positions{angstrom}  cell{angstrom}
       E -9.76930e+00  4.19169e-01 -4.09444e+01
       E  3.29789e+01 -3.65511e+01  3.44990e+01
       E -1.79837e+01 -3.58697e+01 -2.10593e+00
3
# CELL(abcABC): 1322.94304  1322.94304  1322.94304    90.00000    90.00000    90.00000  Step:        9700  Bead:       3 positions{angstrom}  cell{angstrom}
       E -6.50245e+01 -1.39977e-01 -7.73597e+01
       E  2.12833e+01 -6.46514e+01  1.36926e+01
       E -2.88539e+01 -2.87495e+01 -8.43132e+00
3
# CELL(abcABC): 1322.94304  1322.94304  1322.94304    90.00000    90.00000    90.00000  Step:        9800  Bead:       3 positions{angstrom}  cell{angstrom}
       E -4.32703e+01 -4.62118e+01 -4.12767e+01
       E  4.00372e+01 -9.01078e+01 -1.06499e+01
       E  5.28984e+00 -2.01214e+01  3.37057e+01
3