3
# CELL(abcABC): 1322.94304  1322.94304  1322.94304    90.00000    90.00000    90.00000  Step:           0  Bead:      30 positions{angstrom}  cell{angstrom}
       E  0.00000e+00  0.00000e+00  0.00000e+00
       E  0.00000e+00  0.00000e+00  0.00000e+00
       E  0.00000e+00  0.00000e+00  0.00000e+00
3
# CELL(abcABC): 1322.94304  1322.94304  1322.94304    90.00000    90.00000    90.00000  Step:         100  Bead:      30 positions{angstrom}  cell{angstrom}
       E  1.28450e-02 -4.83231e+01  1.47297e+00
       E -7.49652e+00 -1.42981e+01  6.93105e+00
       E  2.71949e+01  6.20055e+00 -5.86648e+00
3
# CELL(abcABC): 1322.94304  1322.94304  1322.94304    90.00000    90.00000    90.00000  Step:         200  Bead:      30 positions{angstrom}  cell{angstrom}
       E -9.88734e+00 -8.24471e+00  3.41166e+01
       E  5.80560e+00  7.95744e+00  2.30123e+01
       E  1.17318e+01 -5.13166e-01  5.13661e+00
3
# CELL(abcABC): 1322.94304  1322.94304  1322.94304    90.00000    90.00000    90.00000  Step:         300  Bead:      30 positions{angstrom}  cell{angstrom}
       E  2.25067e+01 -1.40460e+01  3.55332e+01
       E  3.99194e+00  9.56830e+00  1.40896e+01
       E  3.00319e+01  1.62623e+01 -7.31959e+00
3
# CELL(abcABC): 1322.94304  1322.94304  1322.94304    90.00000    90.00000    90.00000  Step:         400  Bead:      30 positions{angstrom}  cell{angstrom}
       E  2.18726e+01  2.16212e+00 -9.81673e+00
       E  6.77328e+00  4.92045e+00  1.09253e+00
       E  5.77703e+01  1.03913e+01 -2.84629e+01
3
# CELL(abcABC): 1322.94304  1322.94304  1322.94304    90.00000    90.00000    90.00000  Step:         500  Bead:      30 positions{angstrom}  cell{angstrom}
       E  3.04143e+01  2.22788e+00  1.17767e+01
       E -1.63683e+01 -8.22240e+00  3.92642e+01
       E  3.09889e+01  3.08503e+00 -2.29025e+01
3
# CELL(abcABC): 1322.94304  1322.94304  1322.94304    90.00000    90.00000    90.00000  Step:         600  Bead:      30 positions{angstrom}  cell{angstrom}
       E  6.11476e-01  7.12796e+00  4.03885e+01
       E -6.14853e+01 -2.47102e+01  3.67097e+01
       E  3.20869e+01  2.98572e+01 -1.32027e+01
3
# CELL(abcABC): 1322.94304  1322.94304  1322.94304    90.00000    90.00000    90.00000  Step:         700  Bead:      30 positions{angstrom}  cell{angstrom}
       E -8.25450e+00 -1.87807e+01 -6.65745e+00
       E -5.47848e+01  2.44391e+01  3.93067e+01
       E -1.95305e+01  3.14167e+01  1.53957e+01
3
# CELL(abcABC): 1322.94304  1322.94304  1322.94304    90.00000    90.00000    90.00000  Step:         800  Bead:      30 positions{angstrom}  cell{angstrom}
       E  2.06867e+01  7.00895e+00  6.74154e+00
       E -1.93123e+01  3.43184e+01  2.75161e+01
       E -1.48042e+01 -1.73716e+01  1.23032e+01
3
# CELL(abcABC): 1322.94304  1322.94304  1322.94304    90.00000    90.00000    90.00000  Step:         900  Bead:      30 positions{angstrom}  cell{angstrom}
       E  3.02657e+01  1.56544e+01  2.03007e+01
       E -4.76819e+00  5.87335e+01  3.53522e+01
       E -6.98696e+00  2.57957e+01  4.91077e+01
3
# CELL(abcABC): 1322.94304  1322.94304  1322.94304    90.00000    90.00000    90.00000  Step:        1000  Bead:      30 positions{angstrom}  cell{angstrom}
       E  1.21307e+01 -3.47115e+00  1.46378e+01
       E -7.73937e+00  4.29877e+01  3.76505e+01
       E  1.10395e+01 -2.51290e+01  3.49324e+01
3
# CELL(abcABC): 1322.94304  1322.94304  1322.94304    90.00000    90.00000    90.00000  Step:        1100  Bead:      30 positions{angstrom}  cell{angstrom}
       E  2.10688e+01  8.44433e+00  1.58696e+01
       E -7.11847e+00  5.39018e+01  2.12641e+01
       E  4.41062e+01 -7.05566e+00 -9.60910e+00
3
# CELL(abcABC): 1322.94304  1322.94304  1322.94304    90.00000    90.00000    90.00000  Step:        1200  Bead:      30 positions{angstrom}  cell{angstrom}
       E -3.33748e+00  6.65260e+00 -2.62398e+01
       E -1.22944e+01  3.02622e+01 -1.07920e+01
       E  5.81497e+01  1.96565e+01 -2.37153e+01
3
# CELL(abcABC): 1322.94304  1322.94304  1322.94304    90.00000    90.00000    90.00000  Step:        1300  Bead:      30 positions{angstrom}  cell{angstrom}
       E -1.50397e+01 -1.33265e+01 -5.25522e+01
       E -2.71630e+01  1.39445e+01 -3.05543e+01
       E  2.37144e+01  2.99928e+01 -3.99109e+01
3
# CELL(abcABC): 1322.94304  1322.94304  1322.94304    90.00000    90.00000    90.00000  Step:        1400  Bead:      30 positions{angstrom}  cell{angstrom}
       E -1.19342e+01  1.98615e+01 -5.39074e+01
       E -5.70540e+01  3.30450e+01 -3.10322e+01
       E  5.92021e+00  8.97436e-01 -1.23809e+01
3
# CELL(abcABC): 1322.94304  1322.94304  1322.94304    90.00000    90.00000    90.00000  Step:        1500  Bead:      30 positions{angstrom}  cell{angstrom}
       E -4.26805e+01  3.98564e+01 -5.29721e+01
       E -4.00434e+01  3.17224e+01  8.09461e-01
       E  1.11430e+01 -9.30804e+00  9.20240e+00
3
# CELL(abcABC): 1322.94304  1322.94304  1322.94304    90.00000    90.00000    90.00000  Step:        1600  Bead:      30 positions{angstrom}  cell{angstrom}
       E -3.70193e+01  5.76233e+01 -9.11254e+01
       E -3.79294e+01  3.71868e+01  1.52384e+01
       E  3.59218e-01 -1.49692e+01  1.86079e+01
3
# CELL(abcABC): 1322.94304  1322.94304  1322.94304    90.00000    90.00000    90.00000  Step:        1700  Bead:      30 positions{angstrom}  cell{angstrom}
       E -1.94315e+01  3.39119e+01 -1.65378e+01
       E -3.95819e+01  4.61996e+01 -1.73366e+01
       E -1.74498e+01 -4.88007e+01  1.63435e+01
3
# CELL(abcABC): 1322.94304  1322.94304  1322.94304    90.00000    90.00000    90.00000  Step:        1800  Bead:      30 positions{angstrom}  cell{angstrom}
       E -2.32569e+01  1.28655e+01  1.23730e+01
       E -6.54648e+01  5.19009e+01 -1.61856e+01
       E -4.80638e+00 -3.66153e+01  8.77104e+00
3
# CELL(abcABC): 1322.94304  1322.94304  1322.94304    90.00000    90.00000    90.00000  Step:        1900  Bead:      30 positions{angstrom}  cell{angstrom}
       E -3.18366e+01  1.90419e+01  1.08943e+01
       E -5.96708e+01  2.76815e+01 -2.59782e+01
       E -4.00670e+01 -1.85733e+01  2.50994e+01
3
# CELL(abcABC): 1322.94304  1322.94304  1322.94304    90.00000    90.00000    90.00000  Step:        2000  Bead:      30 positions{angstrom}  cell{angstrom}
       E  2.58588e+00 -2.24609e+01  4.15994e+01
       E -4.09676e+01  5.14968e+01 -9.62017e+00
       E -1.82508e+01 -1.76951e+01  1.41154e+01
3
# CELL(abcABC): 1322.94304  1322.94304  1322.94304    90.00000    90.00000    90.00000  Step:        2100  Bead:      30 positions{angstrom}  cell{angstrom}
       E  5.76869e-02 -7.25227e+01  2.58653e+01
       E -4.99888e+01  3.47821e+01 -1.06773e+01
       E -6.50705e+01  2.10038e+01 -7.95333e+00
3
# CELL(abcABC): 1322.94304  1322.94304  1322.94304    90.00000    90.00000    90.00000  Step:        2200  Bead:      30 positions{angstrom}  cell{angstrom}
       E -1.45832e+01 -9.28460e+01 -2.02366e+01
       E -7.76886e+01  5.22384e+01  1.67567e+01
       E -5.67749e+01  3.82516e+01  9.93478e+00
3
# CELL(abcABC): 1322.94304  1322.94304  1322.94304    90.00000    90.00000    90.00000  Step:        2300  Bead:      30 positions{angstrom}  cell{angstrom}
       E  2.11433e+01 -5.34926e+01 -1.30169e+01
       E -7.14628e+01  5.34891e+01  6.85757e+00
       E -2.84293e+01 -6.97408e+00 -3.13323e+01
3
# CELL(abcABC): 1322.94304  1322.94304  1322.94304    90.00000    90.00000    90.00000  Step:        2400  Bead:      30 positions{angstrom}  cell{angstrom}
       E -3.63707e+01 -5.03613e+01  1.26073e+01
       E -4.50474e+01  3.86624e+01  2.28015e+01
       E -5.27825e+00 -3.03715e+01 -4.11302e+01
3
# CELL(abcABC): 1322.94304  1322.94304  1322.94304    90.00000    90.00000    90.00000  Step:        2500  Bead:      30 positions{angstrom}  cell{angstrom}
       E -1.74755e+01 -2.50826e+01  1.73041e+01
       E -6.92103e+01 -1.43960e+01  4.39105e+01
       E  1.79561e+01 -4.56704e+01  3.21476e+01
3
# CELL(abcABC): 1322.94304  1322.94304  1322.94304    90.00000    90.00000    90.00000  Step:        2600  Bead:      30 positions{angstrom}  cell{angstrom}
       E -3.27177e+01 -2.33802e+01  7.19563e+01
       E -5.00787e+01 -3.46335e+01  3.79223e+01
       E  4.91093e+01 -2.47620e+01  2.39612e+01
3
# CELL(abcABC): 1322.94304  1322.94304  1322.94304    90.00000    90.00000    90.00000  Step:        2700  Bead:      30 positions{angstrom}  cell{angstrom}
       E -2.08292e+01 -6.01530e+01  1.20869e+02
       E -7.79111e+01 -4.64621e+01  2.80828e+01
       E  3.93124e+00 -6.40055e+01  1.86645e+01
3
# CELL(abcABC): 1322.94304  1322.94304  1322.94304    90.00000    90.00000    90.00000  Step:        2800  Bead:      30 positions{angstrom}  cell{angstrom}
       E -3.71670e+01 -4.89959e+01  8.37803e+01
       E -3.47046e+01  1.02956e+01  2.39635e+01
       E  1.67767e+01 -2.37912e+01  3.17228e+01
3
# CELL(abcABC): 1322.94304  1322.94304  1322.94304    90.00000    90.00000    90.00000  Step:        2900  Bead:      30 positions{angstrom}  cell{angstrom}
       E -4.86714e+01 -7.85804e+01  2.91125e+01
       E -4.53636e+01 -1.49681e+01  3.79227e+01
       E  1.15540e+01 -6.26232e+01  2.66308e+01
3
# CELL(abcABC): 1322.94304  1322.94304  1322.94304    90.00000    90.00000    90.00000  Step:        3000  Bead:      30 positions{angstrom}  cell{angstrom}
       E -6.68552e+01 -4.76370e+01  2.60298e+01
       E  2.04935e+00  1.33152e+01  4.07212e+01
       E  4.53324e+01 -4.97594e+01  4.40284e-01
3
# CELL(abcABC): 1322.94304  1322.94304  1322.94304    90.00000    90.00000    90.00000  Step:        3100  Bead:      30 positions{angstrom}  cell{angstrom}
       E -8.48621e+01 -6.15006e+01  2.56049e+01
       E -3.11226e+01  4.28554e+00  5.56247e+01
       E  5.15827e+01 -3.59976e+01  1.26415e+01
3
# CELL(abcABC): 1322.94304  1322.94304  1322.94304    90.00000    90.00000    90.00000  Step:        3200  Bead:      30 positions{angstrom}  cell{angstrom}
       E -8.13772e+01 -5.72213e+01  3.45541e+01
       E -5.20252e+01  3.93400e+01  6.61679e+01
       E  5.15622e+01 -3.64489e+01  9.12625e+00
3
# CELL(abcABC): 1322.94304  1322.94304  1322.94304    90.00000    90.00000    90.00000  Step:        3300  Bead:      30 positions{angstrom}  cell{angstrom}
       E -9.29483e+01  1.15295e+01  7.48681e+01
       E -3.62518e+01  6.72488e+01  8.99727e+01
       E  3.41597e+01 -1.80403e+01  4.12939e+01
3
# CELL(abcABC): 1322.94304  1322.94304  1322.94304    90.00000    90.00000    90.00000  Step:        3400  Bead:      30 positions{angstrom}  cell{angstrom}
       E -9.57816e+01  7.66048e+00  5.02490e+01
       E -6.43730e+01  6.93414e+01  6.19566e+01
       E  3.92524e+01 -4.12568e+01  2.12364e+01
3
# CELL(abcABC): 1322.94304  1322.94304  1322.94304    90.00000    90.00000    90.00000  Step:        3500  Bead:      30 positions{angstrom}  cell{angstrom}
       E -8.60996e+01 -4.01744e+01  4.73628e+01
       E -7.24952e+01  3.44277e+01  5.76518e+01
       E  1.40599e+01 -1.96618e+01  1.48028e+01
3
# CELL(abcABC): 1322.94304  1322.94304  1322.94304    90.00000    90.00000    90.00000  Step:        3600  Bead:      30 positions{angstrom}  cell{angstrom}
       E -8.20015e+01 -4.61193e+01  1.32667e+00
       E -2.96020e+01  2.71143e+01  3.28103e+01
       E -3.09817e+01 -3.13019e+01  1.98466e+01
3
# CELL(abcABC): 1322.94304  1322.94304  1322.94304    90.00000    90.00000    90.00000  Step:        3700  Bead:      30 positions{angstrom}  cell{angstrom}
       E -5.54371e+01 -4.99242e+01  1.73707e+01
       E -2.30345e+01  1.34926e+01  1.29894e+01
       E -3.85708e+01 -3.57089e+01 -3.16514e+01
3
# CELL(abcABC): 1322.94304  1322.94304  1322.94304    90.00000    90.00000    90.00000  Step:        3800  Bead:      30 positions{angstrom}  cell{angstrom}
       E -4.92610e+01 -2.08122e+01 -1.14806e+00
       E  4.41196e+00 -5.22607e+00 -5.40997e+00
       E -2.88634e+01 -6.05425e+01 -2.59138e+01
3
# CELL(abcABC): 1322.94304  1322.94304  1322.94304    90.00000    90.00000    90.00000  Step:        3900  Bead:      30 positions{angstrom}  cell{angstrom}
       E -5.21092e+01 -2.58969e+01 -2.00789e+01
       E -4.16062e+01 -8.67027e+00  2.72778e+01
       E -2.16606e+01 -7.45630e+01 -3.30493e+00
3
# CELL(abcABC): 1322.94304  1322.94304  1322.94304    90.00000    90.00000    90.00000  Step:        4000  Bead:      30 positions{angstrom}  cell{angstrom}
       E -7.59798e+01 -2.00530e+01 -2.94819e+01
       E -5.58669e+01  3.32582e+01  2.23604e+01
       E -1.32592e+01 -4.70636e+01 -1.57440e+01
3
# CELL(abcABC): 1322.94304  1322.94304  1322.94304    90.00000    90.00000    90.00000  Step:        4100  Bead:      30 positions{angstrom}  cell{angstrom}
       E -7.76087e+01  3.68629e-01 -5.68503e+01
       E -4.47669e+01  4.94089e+01  1.74961e+01
       E -5.93431e+01 -1.93526e+01  8.58123e+00
3
# CELL(abcABC): 1322.94304  1322.94304  1322.94304    90.00000    90.00000    90.00000  Step:        4200  Bead:      30 positions{angstrom}  cell{angstrom}
       E -6.50031e+01 -6.82612e+00 -1.00011e+02
       E -4.13835e+01  7.87842e+00 -2.88750e+01
       E -2.17086e+01 -1.28859e+00 -1.56893e+01
3
# CELL(abcABC): 1322.94304  1322.94304  1322.94304    90.00000    90.00000    90.00000  Step:        4300  Bead:      30 positions{angstrom}  cell{angstrom}
       E -6.91111e+01  3.86374e+01 -7.58853e+01
       E -1.87983e+01  1.02819e+01 -2.86583e+01
       E -1.03473e+01  1.33340e+01 -1.30838e+01
3
# CELL(abcABC): 1322.94304  1322.94304  1322.94304    90.00000    90.00000    90.00000  Step:        4400  Bead:      30 positions{angstrom}  cell{angstrom}
       E -3.53888e+01  5.19092e+01 -5.14688e+01
       E -4.04111e+01 -8.08976e+00 -8.54912e+00
       E -5.43456e-01  2.97049e+01 -1.42540e+01
3
# CELL(abcABC): 1322.94304  1322.94304  1322.94304    90.00000    90.00000    90.00000  Step:        4500  Bead:      30 positions{angstrom}  cell{angstrom}
       E -8.33387e+01  2.95786e+01 -5.20457e+01
       E -3.56114e+01 -1.85946e+01 -1.17327e+01
       E  6.63323e-01  1.50805e+01  9.38195e+00
3
# CELL(abcABC): 1322.94304  1322.94304  1322.94304    90.00000    90.00000    90.00000  Step:        4600  Bead:      30 positions{angstrom}  cell{angstrom}
       E -4.75174e+01  3.18069e+01 -3.51508e+01
       E -3.93518e+01  8.67748e+00 -1.64645e+00
       E  1.01824e+01  2.05107e+01  2.81036e+01
3
# CELL(abcABC): 1322.94304  1322.94304  1322.94304    90.00000    90.00000    90.00000  Step:        4700  Bead:      30 positions{angstrom}  cell{angstrom}
       E -4.34827e+01  7.62833e+00 -6.75341e+01
       E -2.59692e+01 -2.97939e+01 -5.93505e-01
       E  1.55908e-01  1.62371e+01  2.70707e+01
3
# CELL(abcABC): 1322.94304  1322.94304  1322.94304    90.00000    90.00000    90.00000  Step:        4800  Bead:      30 positions{angstrom}  cell{angstrom}
       E -2.28780e+01  4.15308e+01 -7.13831e+01
       E -2.40864e+01 -4.29164e+01 -5.47514e+00
       E  1.19959e+01 -1.36054e+01 -1.70825e+01
3
# CELL(abcABC): 1322.94304  1322.94304  1322.94304    90.00000    90.00000    90.00000  Step:        4900  Bead:      30 positions{angstrom}  cell{angstrom}
       E -4.11345e+01 -6.04333e+00 -5.98951e+01
       E -6.34360e+00 -1.40621e+01 -3.75599e+01
       E  3.37335e+01 -2.39546e+01  2.40154e+01
3
# CELL(abcABC): 1322.94304  1322.94304  1322.94304    90.00000    90.00000    90.00000  Step:        5000  Bead:      30 positions{angstrom}  cell{angstrom}
       E -1.65645e+01  3.04676e+01 -5.29151e+01
       E  8.67529e+00 -2.01010e+01 -6.01304e+01
       E  6.68793e+01 -2.22575e+01  2.29404e+01
3
# CELL(abcABC): 1322.94304  1322.94304  1322.94304    90.00000    90.00000    90.00000  Step:        5100  Bead:      30 positions{angstrom}  cell{angstrom}
       E -1.72714e+01  3.93635e+01 -2.51484e+01
       E  1.28144e+01 -1.33613e+01  3.93265e+00
       E  4.08400e+01 -2.34006e+01  4.45776e+01
3
# CELL(abcABC): 1322.94304  1322.94304  1322.94304    90.00000    90.00000    90.00000  Step:        5200  Bead:      30 positions{angstrom}  cell{angstrom}
       E -2.95942e+01 -5.29891e-01 -7.28372e+01
       E  2.88622e+00  1.74943e+01  1.74628e+00
       E  7.89461e+00  5.13418e+00  1.14665e+01
3
# CELL(abcABC): 1322.94304  1322.94304  1322.94304    90.00000    90.00000    90.00000  Step:        5300  Bead:      30 positions{angstrom}  cell{angstrom}
       E -2.16347e+01  2.53385e+01 -1.60199e+01
       E -7.23196e+00  2.21022e+01 -2.78224e+01
       E -1.89716e+01  1.44148e+01  2.94341e+01
3
# CELL(abcABC): 1322.94304  1322.94304  1322.94304    90.00000    90.00000    90.00000  Step:        5400  Bead:      30 positions{angstrom}  cell{angstrom}
       E -4.83679e+01  3.22959e+01 -5.91030e+00
       E -7.51270e+00  5.32600e+01 -3.67563e+01
       E -8.57612e+00  1.77144e+01  3.93301e+01
3
# CELL(abcABC): 1322.94304  1322.94304  1322.94304    90.00000    90.00000    90.00000  Step:        5500  Bead:      30 positions{angstrom}  cell{angstrom}
       E -1.79878e+01  3.98665e+01 -2.50280e+01
       E  9.17909e+00  2.92381e+01 -7.62730e+00
       E  1.55257e+01  9.82093e+00  3.15818e+01
3
# CELL(abcABC): 1322.94304  1322.94304  1322.94304    90.00000    90.00000    90.00000  Step:        5600  Bead:      30 positions{angstrom}  cell{angstrom}
       E -1.11379e+01  1.32483e+01 -2.19684e+01
       E -1.05986e+01  4.34103e+01 -1.62786e+01
       E -6.00183e+00 -1.02677e+01  1.03927e+01
3
# CELL(abcABC): 1322.94304  1322.94304  1322.94304    90.00000    90.00000    90.00000  Step:        5700  Bead:      30 positions{angstrom}  cell{angstrom}
       E -2.97637e+01  5.34395e-01 -2.67448e+01
       E  8.40034e+00  2.71456e+01  3.30783e+01
       E -4.28695e+00 -3.51480e+01  1.73468e+01
3
# CELL(abcABC): 1322.94304  1322.94304  1322.94304    90.00000    90.00000    90.00000  Step:        5800  Bead:      30 positions{angstrom}  cell{angstrom}
       E -4.01160e+01 -2.65697e-01 -1.09994e+01
       E -4.88514e-02  1.51283e+01 -8.05890e-02
       E -1.61047e+00 -2.54394e+01 -2.13595e+01
3
# CELL(abcABC): 1322.94304  1322.94304  1322.94304    90.00000    90.00000    90.00000  Step:        5900  Bead:      30 positions{angstrom}  cell{angstrom}
       E -2.70842e+01  6.39688e+00  1.16054e+01
       E  1.45088e+01  1.76153e+01 -3.36876e+01
       E  5.17737e+00 -5.34755e+01  2.27768e+01
3
# CELL(abcABC): 1322.94304  1322.94304  1322.94304    90.00000    90.00000    90.00000  Step:        6000  Bead:      30 positions{angstrom}  cell{angstrom}
       E -3.72225e+01 -1.81049e+01 -1.11567e+01
       E  2.99772e+01 -2.30172e+00 -7.50029e+01
       E  3.38876e-01 -5.82198e+01 -1.31354e+01
3
# CELL(abcABC): 1322.94304  1322.94304  1322.94304    90.00000    90.00000    90.00000  Step:        6100  Bead:      30 positions{angstrom}  cell{angstrom}
       E -1.49285e+01 -5.07764e+01 -1.28183e+01
       E  4.96290e+01 -1.93937e+01 -7.78714e+01
       E  2.68647e+01 -3.42677e+01  1.25992e-01
3
# CELL(abcABC): 1322.94304  1322.94304  1322.94304    90.00000    90.00000    90.00000  Step:        6200  Bead:      30 positions{angstrom}  cell{angstrom}
       E  9.80203e+00 -7.18590e+01 -3.37211e+01
       E  7.78863e+01  1.93795e+00 -6.87709e+01
       E  1.81345e+01 -6.72081e+01  3.23467e+00
3
# CELL(abcABC): 1322.94304  1322.94304  1322.94304    90.00000    90.00000    90.00000  Step:        6300  Bead:      30 positions{angstrom}  cell{angstrom}
       E  3.13501e+01 -8.59079e+01 -8.23734e+01
       E  7.03499e+01 -1.03584e+01 -4.63615e+01
       E  4.28382e+01 -6.81764e+01  2.53477e-01
3
# CELL(abcABC): 1322.94304  1322.94304  1322.94304    90.00000    90.00000    90.00000  Step:        6400  Bead:      30 positions{angstrom}  cell{angstrom}
       E  1.51358e+01 -8.61180e+01 -7.09157e+01
       E  3.30957e+01  1.89954e+01 -4.25701e+01
       E  3.09734e+01 -4.90675e+01  1.85119e+01
3
# CELL(abcABC): 1322.94304  1322.94304  1322.94304    90.00000    90.00000    90.00000  Step:        6500  Bead:      30 positions{angstrom}  cell{angstrom}
       E  2.56045e+01 -8.70838e+01 -9.76740e+01
       E -1.59546e+01  4.35861e+01 -5.89643e+01
       E  1.63969e+01 -1.48467e+01 -1.77956e+01
3
# CELL(abcABC): 1322.94304  1322.94304  1322.94304    90.00000    90.00000    90.00000  Step:        6600  Bead:      30 positions{angstrom}  cell{angstrom}
       E  2.36029e+01 -9.67407e+01 -1.13056e+02
       E  2.82057e+00 -4.21700e+00 -3.07276e+01
       E  2.87528e+01 -4.93046e+01  9.81985e+00
3
# CELL(abcABC): 1322.94304  1322.94304  1322.94304    90.00000    90.00000    90.00000  Step:        6700  Bead:      30 positions{angstrom}  cell{angstrom}
       E  3.24766e+01 -8.74556e+01 -1.24132e+02
       E -5.73481e+00 -9.98652e-01 -3.06199e+01
       E  1.68816e+01 -3.68776e+01  5.83065e+00
3
# CELL(abcABC): 1322.94304  1322.94304  1322.94304    90.00000    90.00000    90.00000  Step:        6800  Bead:      30 positions{angstrom}  cell{angstrom}
       E  2.46995e+01 -1.14586e+02 -8.70351e+01
       E -9.00745e-01  2.96686e+01 -7.71605e-02
       E  2.15748e+01 -6.56987e+01  1.18386e+01
3
# CELL(abcABC): 1322.94304  1322.94304  1322.94304    90.00000    90.00000    90.00000  Step:        6900  Bead:      30 positions{angstrom}  cell{angstrom}
       E -4.00312e-01 -9.93372e+01 -4.19864e+01
       E  2.06736e+01  1.52785e+01 -8.17934e-01
       E  7.85955e+00 -4.82047e+01 -3.66294e-01
3
# CELL(abcABC): 1322.94304  1322.94304  1322.94304    90.00000    90.00000    90.00000  Step:        7000  Bead:      30 positions{angstrom}  cell{angstrom}
       E  1.72102e+01 -5.52465e+01 -3.50081e+01
       E  3.03420e+01  4.97189e+01  8.38443e+00
       E  3.00667e+01 -2.62118e+01  1.92819e+01
3
# CELL(abcABC): 1322.94304  1322.94304  1322.94304    90.00000    90.00000    90.00000  Step:        7100  Bead:      30 positions{angstrom}  cell{angstrom}
       E -4.48274e+00 -3.75659e+01 -5.45724e+01
       E  1.44492e+01  6.53246e+01  1.53904e+01
       E  1.81240e+01 -4.11746e+00 -4.62964e+00
3
# CELL(abcABC): 1322.94304  1322.94304  1322.94304    90.00000    90.00000    90.00000  Step:        7200  Bead:      30 positions{angstrom}  cell{angstrom}
       E -3.31086e+01 -3.89463e+01 -6.52227e+01
       E  2.55503e+01  9.53695e+01  2.84121e+01
       E  1.65649e+01  6.77573e+00  1.95942e+01
3
# CELL(abcABC): 1322.94304  1322.94304  1322.94304    90.00000    90.00000    90.00000  Step:        7300  Bead:      30 positions{angstrom}  cell{angstrom}
       E  3.38026e+01  1.32471e+01 -3.84496e+01
       E  6.35309e+00  4.73253e+01  5.39746e+00
       E  2.79947e+01  1.29340e+00 -1.09854e+01
3
# CELL(abcABC): 1322.94304  1322.94304  1322.94304    90.00000    90.00000    90.00000  Step:        7400  Bead:      30 positions{angstrom}  cell{angstrom}
       E  1.31585e+01  6.09434e+00 -7.33517e-01
       E  2.47820e+01  3.92476e+01 -1.65997e+01
       E  3.09707e+01  1.47576e+01 -2.38139e+01
3
# CELL(abcABC): 1322.94304  1322.94304  1322.94304    90.00000    90.00000    90.00000  Step:        7500  Bead:      30 positions{angstrom}  cell{angstrom}
       E -3.22458e+01 -1.51009e+01 -5.95345e+00
       E  3.14864e+01  2.54934e+01 -1.98988e+01
       E  2.07248e+01 -4.11072e+00 -1.91139e+01
3
# CELL(abcABC): 1322.94304  1322.94304  1322.94304    90.00000    90.00000    90.00000  Step:        7600  Bead:      30 positions{angstrom}  cell{angstrom}
       E -9.25208e+00 -4.41940e+01 -2.26489e+01
       E  1.23039e+01  1.59014e+01 -7.11166e+00
       E  6.37418e+00 -2.12598e+00 -4.82414e+01
3
# CELL(abcABC): 1322.94304  1322.94304  1322.94304    90.00000    90.00000    90.00000  Step:        7700  Bead:      30 positions{angstrom}  cell{angstrom}
       E  1.22288e+01 -4.31110e+01 -2.29210e+01
       E  4.79988e+01 -8.84398e+00 -1.26946e+01
       E  1.01356e+01 -3.20219e+01 -6.09090e+01
3
# CELL(abcABC): 1322.94304  1322.94304  1322.94304    90.00000    90.00000    90.00000  Step:        7800  Bead:      30 positions{angstrom}  cell{angstrom}
       E  3.61970e+01 -5.39702e+01 -2.88497e+01
       E  2.97975e+01 -3.64385e+00 -4.78956e+01
       E  6.35709e+00 -4.19560e+01 -3.43001e+01
3
# CELL(abcABC): 1322.94304  1322.94304  1322.94304    90.00000    90.00000    90.00000  Step:        7900  Bead:      30 positions{angstrom}  cell{angstrom}
       E  4.78717e+01 -2.47035e+01 -3.54256e+01
       E  2.70457e+01 -6.55756e+00 -4.69934e+01
       E  4.26092e+01 -5.85055e+00 -4.27663e+01
3
# CELL(abcABC): 1322.94304  1322.94304  1322.94304    90.00000    90.00000    90.00000  Step:        8000  Bead:      30 positions{angstrom}  cell{angstrom}
       E  4.37225e+01 -1.03388e+01 -4.69542e+01
       E  2.36037e+00  2.03423e+01 -3.17629e+01
       E  6.77606e+00 -3.42309e+01 -1.06491e+01
3
# CELL(abcABC): 1322.94304  1322.94304  1322.94304    90.00000    90.00000    90.00000  Step:        8100  Bead:      30 positions{angstrom}  cell{angstrom}
       E  5.17960e+01  4.46690e+01 -3.37897e+01
       E  1.29152e-01  1.97906e+01 -3.75716e+01
       E -3.28344e+01 -3.31167e+01  9.94486e+00
3
# CELL(abcABC): 1322.94304  1322.94304  1322.94304    90.00000    90.00000    90.00000  Step:        8200  Bead:      30 positions{angstrom}  cell{angstrom}
       E  2.80535e+01  5.10934e+00 -1.42003e+01
       E  1.04107e+01  5.43951e+01  3.40141e+00
       E -3.40178e+01 -3.80247e+01  1.06961e+01
3
# CELL(abcABC): 1322.94304  1322.94304  1322.94304    90.00000    90.00000    90.00000  Step:        8300  Bead:      30 positions{angstrom}  cell{angstrom}
       E  4.46461e+01  3.81076e+01 -2.41130e+01
       E  5.22673e+01  1.59188e+01  2.87452e+00
       E -3.10612e+01 -3.64482e+01  2.94928e+01
3
# CELL(abcABC): 1322.94304  1322.94304  1322.94304    90.00000    90.00000    90.00000  Step:        8400  Bead:      30 positions{angstrom}  cell{angstrom}
       E  3.47331e+01 -2.06540e+01 -3.30386e+01
       E  6.81570e+00  2.10196e+01  2.27784e+01
       E -3.34519e+00 -5.27216e+01  5.23423e+01
3
# CELL(abcABC): 1322.94304  1322.94304  1322.94304    90.00000    90.00000    90.00000  Step:        8500  Bead:      30 positions{angstrom}  cell{angstrom}
       E  2.43110e+01  1.45281e+01 -2.61260e+01
       E  2.97780e+01  1.51723e+01  2.32208e+01
       E  2.04877e+01 -2.56079e+01  4.05960e+01
3
# CELL(abcABC): 1322.94304  1322.94304  1322.94304    90.00000    90.00000    90.00000  Step:        8600  Bead:      30 positions{angstrom}  cell{angstrom}
       E -1.41172e+01 -1.03460e+01 -7.33091e+00
       E  4.05703e+01 -2.23865e+00  2.23837e+01
       E  3.82597e+01  1.70485e+01  2.78486e+01
3
# CELL(abcABC): 1322.94304  1322.94304  1322.94304    90.00000    90.00000    90.00000  Step:        8700  Bead:      30 positions{angstrom}  cell{angstrom}
       E -6.92375e+01  2.00063e+01 -3.29462e+01
       E  3.21726e+01 -8.09373e+00  2.61383e+01
       E  7.00373e+01 -2.63465e+01  3.90392e+01
3
# CELL(abcABC): 1322.94304  1322.94304  1322.94304    90.00000    90.00000    90.00000  Step:        8800  Bead:      30 positions{angstrom}  cell{angstrom}
       E -3.58114e+01  3.10771e+01 -1.53401e+01
       E  3.64732e+00 -3.06107e+01  4.22879e+01
       E  5.19352e+01 -6.13073e+01  3.95841e+01
3
# CELL(abcABC): 1322.94304  1322.94304  1322.94304    90.00000    90.00000    90.00000  Step:        8900  Bead:      30 positions{angstrom}  cell{angstrom}
       E -3.02380e+01  6.12337e+01 -1.79468e+01
       E -2.40073e+01 -2.42065e+01  3.48868e+01
       E  2.78388e+01 -9.52533e+01  3.89608e+01
3
# CELL(abcABC): 1322.94304  1322.94304  1322.94304    90.00000    90.00000    90.00000  Step:        9000  Bead:      30 positions{angstrom}  cell{angstrom}
       E -1.95660e+01  6.48049e+01  1.37355e+01
       E -5.01290e+01 -6.01204e+01  4.64436e+01
       E  1.86358e+01 -6.53353e+01  5.35915e+00
3
# CELL(abcABC): 1322.94304  1322.94304  1322.94304    90.00000    90.00000    90.00000  Step:        9100  Bead:      30 positions{angstrom}  cell{angstrom}
       E  8.18951e+00  2.43117e+01  3.07343e+01
       E -3.27636e+01  5.98241e+00  3.54562e+01
       E -2.25909e+00 -6.81048e+01  1.24311e+01
3
# CELL(abcABC): 1322.94304  1322.94304  1322.94304    90.00000    90.00000    90.00000  Step:        9200  Bead:      30 positions{angstrom}  cell{angstrom}
       E  3.32742e+00  4.21156e+01 -3.11792e+00
       E -3.21088e+01 -1.10442e+01  3.17754e+01
       E  2.74813e+01 -4.38156e+01 -7.74579e-01
3
# CELL(abcABC): 1322.94304  1322.94304  1322.94304    90.00000    90.00000    90.00000  Step:        9300  Bead:      30 positions{angstrom}  cell{angstrom}
       E  4.60653e+01  4.69581e+01 -4.94974e+01
       E  7.68137e-02 -4.66614e+01  5.78257e+01
       E  5.27834e+01 -2.68771e+01  6.31265e-01
3
# CELL(abcABC): 1322.94304  1322.94304  1322.94304    90.00000    90.00000    90.00000  Step:        9400  Bead:      30 positions{angstrom}  cell{angstrom}
       E  3.90172e+01  3.14484e+01 -1.77741e+01
       E -7.54787e+00 -4.78175e+01  1.20577e+01
       E  6.98207e+00 -7.65027e+00  1.13230e+01
3
# CELL(abcABC): 1322.94304  1322.94304  1322.94304    90.00000    90.00000    90.00000  Step:        9500  Bead:      30 positions{angstrom}  cell{angstrom}
       E  3.75615e+01 -1.19194e-01 -2.60762e+01
       E  6.86961e+00 -2.38498e+01  1.94634e+01
       E  1.47344e+01 -2.16143e+01 -2.44300e+01
3
# CELL(abcABC): 1322.94304  1322.94304  1322.94304    90.00000    90.00000    90.00000  Step:        9600  Bead:      30 positions{angstrom}  cell{angstrom}
       E  7.88087e+00 -7.93282e+00 -3.44840e+01
       E  2.46700e+01 -2.70042e+01  9.27369e+00
       E  1.06849e+00 -3.50563e+01 -4.74962e+00
3
# CELL(abcABC): 1322.94304  1322.94304  1322.94304    90.00000    90.00000    90.00000  Step:        9700  Bead:      30 positions{angstrom}  cell{angstrom}
       E -4.09077e+01 -6.14973e+01 -6.26900e+01
       E  4.14574e+01 -6.72150e+01 -2.41237e+01
       E -3.85722e+01  4.75314e-02  4.95405e+00
3
# CELL(abcABC): 1322.94304  1322.94304  1322.94304    90.00000    90.00000    90.00000  Step:        9800  Bead:      30 positions{angstrom}  cell{angstrom}
       E -1.63527e+01 -4.43121e+01 -7.12767e+01
       E  4.01123e+01 -7.58854e+01 -1.43940e+01
       E -2.67375e+01 -2.79636e+01 -1.55150e+01
3