3
# CELL(abcABC): 1322.94304  1322.94304  1322.94304    90.00000    90.00000    90.00000  Step:           0  Bead:       8 positions{angstrom}  cell{angstrom}
       E  0.00000e+00  0.00000e+00  0.00000e+00
       E  0.00000e+00  0.00000e+00  0.00000e+00
       E  0.00000e+00  0.00000e+00  0.00000e+00
3
# CELL(abcABC): 1322.94304  1322.94304  1322.94304    90.00000    90.00000    90.00000  Step:         100  Bead:       8 positions{angstrom}  cell{angstrom}
       E -3.87330e+01  5.44176e+00  1.31787e+01
       E -3.17876e+01 -3.83467e+00 -2.96639e+01
       E -1.76207e+01  7.38960e+00 -1.41241e+01
3
# CELL(abcABC): 1322.94304  1322.94304  1322.94304    90.00000    90.00000    90.00000  Step:         200  Bead:       8 positions{angstrom}  cell{angstrom}
       E -8.03700e+00 -2.40220e+01 -4.97349e+01
       E  2.77533e+01  2.53135e+01 -3.75907e+01
       E -4.10447e+01  3.97955e+00  7.13642e-02
3
# CELL(abcABC): 1322.94304  1322.94304  1322.94304    90.00000    90.00000    90.00000  Step:         300  Bead:       8 positions{angstrom}  cell{angstrom}
       E -1.68484e+01 -1.57800e+01 -2.58392e+01
       E  8.18580e+00 -7.31658e+00 -3.02276e+01
       E -2.05555e+01 -4.69277e+00  5.80645e+00
3
# CELL(abcABC): 1322.94304  1322.94304  1322.94304    90.00000    90.00000    90.00000  Step:         400  Bead:       8 positions{angstrom}  cell{angstrom}
       E  4.91160e-01  2.98358e+01 -6.60757e+00
       E -1.10711e+01  3.07113e+01 -1.27929e+01
       E -7.20773e+00  9.25046e+00  9.01683e+00
3
# CELL(abcABC): 1322.94304  1322.94304  1322.94304    90.00000    90.00000    90.00000  Step:         500  Bead:       8 positions{angstrom}  cell{angstrom}
       E -1.73185e+01  1.51653e+01 -3.35892e+00
       E  3.64709e-01  1.57222e+00  1.70703e+01
       E -1.09284e+01  1.27184e+00  1.92401e+01
3
# CELL(abcABC): 1322.94304  1322.94304  1322.94304    90.00000    90.00000    90.00000  Step:         600  Bead:       8 positions{angstrom}  cell{angstrom}
       E -3.08693e+01  4.66934e+01 -4.54013e+01
       E -2.72566e+01 -1.87764e+01  2.98494e+01
       E  1.08895e+01 -1.74931e+01  6.82067e+00
3
# CELL(abcABC): 1322.94304  1322.94304  1322.94304    90.00000    90.00000    90.00000  Step:         700  Bead:       8 positions{angstrom}  cell{angstrom}
       E  1.59357e+01  2.42238e+01 -3.60974e+01
       E -9.38944e-01  2.48739e+01  2.40576e+01
       E -3.77497e+00 -1.49468e+01  3.83756e+01
3
# CELL(abcABC): 1322.94304  1322.94304  1322.94304    90.00000    90.00000    90.00000  Step:         800  Bead:       8 positions{angstrom}  cell{angstrom}
       E -4.91347e+01  2.81137e+01 -1.99009e+01
       E  3.57035e+01  5.60591e+01  1.41601e+01
       E -7.03816e+01  1.57252e+01  8.03063e+01
3
# CELL(abcABC): 1322.94304  1322.94304  1322.94304    90.00000    90.00000    90.00000  Step:         900  Bead:       8 positions{angstrom}  cell{angstrom}
       E  1.76137e+01 -8.57644e+00 -3.86086e-01
       E  1.16446e+00  1.02806e+01 -4.22065e+01
       E -1.59299e+01  3.32146e+01  8.97683e+01
3
# CELL(abcABC): 1322.94304  1322.94304  1322.94304    90.00000    90.00000    90.00000  Step:        1000  Bead:       8 positions{angstrom}  cell{angstrom}
       E  3.36360e+00  8.33644e+00 -1.41187e+01
       E -4.08234e+00  3.57138e+00 -4.03011e+01
       E -3.46277e+01  7.90805e+00  7.12763e+01
3
# CELL(abcABC): 1322.94304  1322.94304  1322.94304    90.00000    90.00000    90.00000  Step:        1100  Bead:       8 positions{angstrom}  cell{angstrom}
       E  1.68689e+01  1.38549e+01 -6.40261e+01
       E  5.05786e+01 -1.00438e+01 -3.76252e+01
       E -2.76270e+01  2.89372e+01  2.76197e+01
3
# CELL(abcABC): 1322.94304  1322.94304  1322.94304    90.00000    90.00000    90.00000  Step:        1200  Bead:       8 positions{angstrom}  cell{angstrom}
       E  2.40748e+01 -1.39108e+01 -7.53084e+01
       E  1.88020e+01 -3.29747e+01 -7.17380e+01
       E -2.20940e+01  3.79964e+01  1.51336e+01
3
# CELL(abcABC): 1322.94304  1322.94304  1322.94304    90.00000    90.00000    90.00000  Step:        1300  Bead:       8 positions{angstrom}  cell{angstrom}
       E -1.27389e+01 -1.57831e+00 -7.87598e+01
       E  1.25677e+01 -4.75068e+01 -4.62943e+01
       E -4.30413e+01  4.97550e+01  3.54392e+01
3
# CELL(abcABC): 1322.94304  1322.94304  1322.94304    90.00000    90.00000    90.00000  Step:        1400  Bead:       8 positions{angstrom}  cell{angstrom}
       E -3.61038e+01 -7.78937e+00 -8.13640e+01
       E -3.47281e+00 -2.05404e+01 -3.34517e+01
       E -6.21877e+01  2.85301e+01  9.65981e+00
3
# CELL(abcABC): 1322.94304  1322.94304  1322.94304    90.00000    90.00000    90.00000  Step:        1500  Bead:       8 positions{angstrom}  cell{angstrom}
       E -1.50898e+01  2.81197e+01 -6.83734e+01
       E -6.44580e+00 -1.05607e+01  1.05114e+00
       E -6.73776e+01  3.74510e+01 -1.33373e+01
3
# CELL(abcABC): 1322.94304  1322.94304  1322.94304    90.00000    90.00000    90.00000  Step:        1600  Bead:       8 positions{angstrom}  cell{angstrom}
       E  2.01143e+00  2.52064e+01 -4.16174e+01
       E  4.95000e-01  3.52901e+01  6.13317e+00
       E -6.51719e+01  4.23816e+01 -1.10798e+01
3
# CELL(abcABC): 1322.94304  1322.94304  1322.94304    90.00000    90.00000    90.00000  Step:        1700  Bead:       8 positions{angstrom}  cell{angstrom}
       E  1.26866e+01 -3.24379e+00 -2.24082e+01
       E  1.39089e+01  4.46583e+01  3.19997e+01
       E -5.76333e+01  5.31344e+01  1.43088e+01
3
# CELL(abcABC): 1322.94304  1322.94304  1322.94304    90.00000    90.00000    90.00000  Step:        1800  Bead:       8 positions{angstrom}  cell{angstrom}
       E -2.11750e+01  2.95395e+00 -6.90049e+00
       E -4.17483e+00  4.99063e+01  1.98681e+01
       E -7.00477e+01  6.64345e+01  6.78119e+01
3
# CELL(abcABC): 1322.94304  1322.94304  1322.94304    90.00000    90.00000    90.00000  Step:        1900  Bead:       8 positions{angstrom}  cell{angstrom}
       E -1.81694e+01  3.12898e+01  1.82440e+01
       E -6.93255e+01  2.89708e+01  1.88147e+01
       E -8.79457e+01  6.32485e+01  1.84918e+01
3
# CELL(abcABC): 1322.94304  1322.94304  1322.94304    90.00000    90.00000    90.00000  Step:        2000  Bead:       8 positions{angstrom}  cell{angstrom}
       E -1.12420e+01  3.62484e+00  5.23314e+01
       E -5.74219e+01  3.45491e+01  4.13601e+01
       E -8.29236e+01  3.82715e+01 -2.65065e+01
3
# CELL(abcABC): 1322.94304  1322.94304  1322.94304    90.00000    90.00000    90.00000  Step:        2100  Bead:       8 positions{angstrom}  cell{angstrom}
       E -7.09871e+00 -3.37717e+01  6.67082e+01
       E -4.33337e+01  3.35165e+01  3.54435e+00
       E -5.88350e+01  4.33577e+01 -1.19933e+00
3
# CELL(abcABC): 1322.94304  1322.94304  1322.94304    90.00000    90.00000    90.00000  Step:        2200  Bead:       8 positions{angstrom}  cell{angstrom}
       E -2.03632e+01 -4.90815e+01  5.44020e+01
       E -1.48984e+01 -2.55567e+00 -1.49342e+01
       E -4.72353e+01  7.54230e+01  7.90588e+00
3
# CELL(abcABC): 1322.94304  1322.94304  1322.94304    90.00000    90.00000    90.00000  Step:        2300  Bead:       8 positions{angstrom}  cell{angstrom}
       E -1.76283e+01 -8.96868e+01  5.36252e+01
       E -3.18390e+01 -3.01792e+00  1.95619e+01
       E -3.48061e+01  6.50603e+01  5.48171e+01
3
# CELL(abcABC): 1322.94304  1322.94304  1322.94304    90.00000    90.00000    90.00000  Step:        2400  Bead:       8 positions{angstrom}  cell{angstrom}
       E -1.51507e+01 -7.16219e+01  2.84452e+01
       E  1.67238e+01  1.59039e+00  8.37312e-01
       E -7.92838e+00  3.23639e+01  1.76698e+01
3
# CELL(abcABC): 1322.94304  1322.94304  1322.94304    90.00000    90.00000    90.00000  Step:        2500  Bead:       8 positions{angstrom}  cell{angstrom}
       E -1.71630e+01 -5.49882e+01  4.44631e+01
       E  3.27864e+00 -1.62197e+01 -6.15288e+01
       E  9.57899e+00  2.66528e+01  6.04410e+01
3
# CELL(abcABC): 1322.94304  1322.94304  1322.94304    90.00000    90.00000    90.00000  Step:        2600  Bead:       8 positions{angstrom}  cell{angstrom}
       E  2.31419e+01 -6.19924e+01  7.74400e+01
       E -2.55424e+01 -2.47715e+01 -7.77836e+01
       E -1.62003e+01 -2.81747e+01  3.24244e+01
3
# CELL(abcABC): 1322.94304  1322.94304  1322.94304    90.00000    90.00000    90.00000  Step:        2700  Bead:       8 positions{angstrom}  cell{angstrom}
       E -1.72261e+00 -2.40983e+01  8.90308e+01
       E -4.31756e+01 -2.61107e+01 -3.95393e+01
       E -1.28992e+01 -2.41026e+01  1.13362e+01
3
# CELL(abcABC): 1322.94304  1322.94304  1322.94304    90.00000    90.00000    90.00000  Step:        2800  Bead:       8 positions{angstrom}  cell{angstrom}
       E -3.95099e+01 -5.78104e+01  1.57219e+01
       E -1.22257e+01 -4.94481e+01 -1.67455e+01
       E  5.70764e-01 -7.45354e+00  4.97862e+01
3
# CELL(abcABC): 1322.94304  1322.94304  1322.94304    90.00000    90.00000    90.00000  Step:        2900  Bead:       8 positions{angstrom}  cell{angstrom}
       E -3.19857e+01 -6.23490e+01 -3.20952e+01
       E -1.30197e+01 -4.94445e+01 -1.63025e+01
       E  1.74549e+01  3.12694e+01  3.19599e+01
3
# CELL(abcABC): 1322.94304  1322.94304  1322.94304    90.00000    90.00000    90.00000  Step:        3000  Bead:       8 positions{angstrom}  cell{angstrom}
       E -4.33233e+01 -3.95974e+01 -1.33311e+01
       E  1.22775e+01 -4.57569e+01  3.17837e+01
       E  1.64442e+01  3.86249e+01 -2.26285e+01
3
# CELL(abcABC): 1322.94304  1322.94304  1322.94304    90.00000    90.00000    90.00000  Step:        3100  Bead:       8 positions{angstrom}  cell{angstrom}
       E -3.21707e+01 -2.99158e+01  2.61287e+01
       E  3.20092e+00 -7.55134e+01  6.04344e+01
       E -2.74732e+01  4.04886e+01  1.36014e+01
3
# CELL(abcABC): 1322.94304  1322.94304  1322.94304    90.00000    90.00000    90.00000  Step:        3200  Bead:       8 positions{angstrom}  cell{angstrom}
       E -3.79538e+01  2.83924e-01  6.65257e+01
       E -4.97909e+01 -4.31541e+01  4.18482e+01
       E -1.01295e+01  4.77044e+01  1.42232e+01
3
# CELL(abcABC): 1322.94304  1322.94304  1322.94304    90.00000    90.00000    90.00000  Step:        3300  Bead:       8 positions{angstrom}  cell{angstrom}
       E -4.14342e+01 -4.88726e+01  3.95574e+01
       E -2.67075e+01 -1.44327e+01  7.21881e+01
       E -3.50238e+01  2.11608e+01  5.79276e+01
3
# CELL(abcABC): 1322.94304  1322.94304  1322.94304    90.00000    90.00000    90.00000  Step:        3400  Bead:       8 positions{angstrom}  cell{angstrom}
       E -7.91024e+01  6.60233e+00  1.98291e+01
       E -1.56905e+01 -3.82584e+01  6.15645e+01
       E -3.93015e+01  4.33590e+01  4.71350e+01
3
# CELL(abcABC): 1322.94304  1322.94304  1322.94304    90.00000    90.00000    90.00000  Step:        3500  Bead:       8 positions{angstrom}  cell{angstrom}
       E -8.69260e+01 -6.09664e+00  1.30240e+01
       E  3.36525e+01 -3.00296e+01  3.51705e+01
       E -3.60532e+01  3.60138e+01  7.67272e+01
3
# CELL(abcABC): 1322.94304  1322.94304  1322.94304    90.00000    90.00000    90.00000  Step:        3600  Bead:       8 positions{angstrom}  cell{angstrom}
       E -7.52279e+01 -3.58976e+01  2.86756e+01
       E  4.09303e+01 -1.59662e+01  2.43289e+01
       E -9.60941e+01  2.02476e+01  3.64554e+01
3
# CELL(abcABC): 1322.94304  1322.94304  1322.94304    90.00000    90.00000    90.00000  Step:        3700  Bead:       8 positions{angstrom}  cell{angstrom}
       E -8.68311e+01 -3.24479e+01  6.79652e+00
       E  1.33842e+01 -1.00807e+01  7.62824e-02
       E -5.40188e+01  2.70547e+01 -1.63522e+01
3
# CELL(abcABC): 1322.94304  1322.94304  1322.94304    90.00000    90.00000    90.00000  Step:        3800  Bead:       8 positions{angstrom}  cell{angstrom}
       E -8.90435e+01 -1.84204e+01 -3.56198e+01
       E -2.54745e+01 -1.75465e+01 -2.13461e+01
       E -2.59343e+01  2.14012e+00  7.96351e+00
3
# CELL(abcABC): 1322.94304  1322.94304  1322.94304    90.00000    90.00000    90.00000  Step:        3900  Bead:       8 positions{angstrom}  cell{angstrom}
       E -5.75674e+01  1.70759e+00 -2.98704e+01
       E -4.14439e+01 -7.70616e+00 -4.25571e+01
       E -2.14823e+01  5.48493e+00 -3.03779e+00
3
# CELL(abcABC): 1322.94304  1322.94304  1322.94304    90.00000    90.00000    90.00000  Step:        4000  Bead:       8 positions{angstrom}  cell{angstrom}
       E -9.59897e+01  1.77888e+01 -4.12153e+01
       E -5.20021e+01  5.10968e+00  1.04430e+01
       E -2.57237e+01  2.13387e+01  1.31842e+01
3
# CELL(abcABC): 1322.94304  1322.94304  1322.94304    90.00000    90.00000    90.00000  Step:        4100  Bead:       8 positions{angstrom}  cell{angstrom}
       E -6.97546e+01  6.24196e+01 -4.98548e+01
       E -3.41487e+01  1.27814e+01  4.33943e+01
       E -5.03804e+01  4.03543e+01  5.45896e+01
3
# CELL(abcABC): 1322.94304  1322.94304  1322.94304    90.00000    90.00000    90.00000  Step:        4200  Bead:       8 positions{angstrom}  cell{angstrom}
       E -2.54960e+01  4.10585e+01 -3.00648e+01
       E -6.10073e+01  1.83016e+01  1.92688e+01
       E -5.04098e+01  4.38885e+01  6.55469e+01
3
# CELL(abcABC): 1322.94304  1322.94304  1322.94304    90.00000    90.00000    90.00000  Step:        4300  Bead:       8 positions{angstrom}  cell{angstrom}
       E -3.32334e+01 -1.79372e+00 -4.60669e+01
       E -9.44597e+01  1.77695e+01  4.76442e+01
       E -5.27483e+01  4.25950e+01  4.70323e+00
3
# CELL(abcABC): 1322.94304  1322.94304  1322.94304    90.00000    90.00000    90.00000  Step:        4400  Bead:       8 positions{angstrom}  cell{angstrom}
       E -4.55460e+01 -6.14719e+00 -2.28250e+01
       E -6.68249e+01  6.93330e+01  4.12788e+00
       E -4.56544e+01  1.01393e+01 -2.09899e+01
3
# CELL(abcABC): 1322.94304  1322.94304  1322.94304    90.00000    90.00000    90.00000  Step:        4500  Bead:       8 positions{angstrom}  cell{angstrom}
       E -4.94574e+01  6.53065e+00 -2.08836e+01
       E -7.06074e+01  5.77414e+01 -2.23682e+01
       E -5.36172e+01 -1.04285e+01  1.39893e+01
3
# CELL(abcABC): 1322.94304  1322.94304  1322.94304    90.00000    90.00000    90.00000  Step:        4600  Bead:       8 positions{angstrom}  cell{angstrom}
       E  1.16734e+01  5.66400e+01 -3.46904e+01
       E -6.31448e+01  3.65315e+00 -4.47673e+01
       E -6.87041e+00  1.53801e+01  4.65234e+01
3
# CELL(abcABC): 1322.94304  1322.94304  1322.94304    90.00000    90.00000    90.00000  Step:        4700  Bead:       8 positions{angstrom}  cell{angstrom}
       E  4.86179e+00  6.83037e+01 -4.85285e+01
       E -4.85512e+01  4.70283e+01 -6.33750e+01
       E  3.26253e+01  1.42819e+01  8.08527e+00
3
# CELL(abcABC): 1322.94304  1322.94304  1322.94304    90.00000    90.00000    90.00000  Step:        4800  Bead:       8 positions{angstrom}  cell{angstrom}
       E  1.35692e+01  7.28835e+01  2.24216e+01
       E -6.91862e+01  4.30286e+01 -1.36255e+01
       E  1.54739e+01  3.13822e+01 -3.39689e+01
3
# CELL(abcABC): 1322.94304  1322.94304  1322.94304    90.00000    90.00000    90.00000  Step:        4900  Bead:       8 positions{angstrom}  cell{angstrom}
       E  2.01557e+01  3.86717e+01 -1.87961e+01
       E -6.31893e+01 -7.91542e+00 -6.68393e+01
       E -1.68385e+00  3.11574e+01 -4.34381e+01
3
# CELL(abcABC): 1322.94304  1322.94304  1322.94304    90.00000    90.00000    90.00000  Step:        5000  Bead:       8 positions{angstrom}  cell{angstrom}
       E  1.28305e+01  2.02423e+01  4.29403e+01
       E -1.79828e+01  6.97287e+00 -4.03754e+01
       E -1.12685e+01  3.31958e+00 -4.42184e+01
3
# CELL(abcABC): 1322.94304  1322.94304  1322.94304    90.00000    90.00000    90.00000  Step:        5100  Bead:       8 positions{angstrom}  cell{angstrom}
       E -1.91019e+01 -7.53217e+00  8.38488e+00
       E -1.44498e+01  1.64852e+01 -5.02998e+01
       E -1.18447e+01  1.53334e+01 -1.14641e+00
3
# CELL(abcABC): 1322.94304  1322.94304  1322.94304    90.00000    90.00000    90.00000  Step:        5200  Bead:       8 positions{angstrom}  cell{angstrom}
       E -8.79145e+00 -9.68015e+00  3.36390e+01
       E -2.45502e+01  6.02433e+01 -1.12179e+01
       E -4.73790e-01 -1.93309e+00  1.58323e+01
3
# CELL(abcABC): 1322.94304  1322.94304  1322.94304    90.00000    90.00000    90.00000  Step:        5300  Bead:       8 positions{angstrom}  cell{angstrom}
       E -1.44119e+00  4.35538e+01  5.51434e+01
       E -4.17013e+00  5.68298e+01 -4.64829e+01
       E  2.16936e+01  4.61618e+01  3.67599e+01
3
# CELL(abcABC): 1322.94304  1322.94304  1322.94304    90.00000    90.00000    90.00000  Step:        5400  Bead:       8 positions{angstrom}  cell{angstrom}
       E -8.18214e+00  1.21825e+01  5.17325e+01
       E -7.87408e+00  3.43568e+01 -6.09061e+01
       E  2.06767e+01  1.26672e+01  5.50266e+01
3
# CELL(abcABC): 1322.94304  1322.94304  1322.94304    90.00000    90.00000    90.00000  Step:        5500  Bead:       8 positions{angstrom}  cell{angstrom}
       E -9.26998e+00  5.07589e+01  8.74743e+01
       E -2.72510e+01  3.46832e+00 -4.34230e+01
       E -4.41058e+01  1.17611e+01  2.02491e+01
3
# CELL(abcABC): 1322.94304  1322.94304  1322.94304    90.00000    90.00000    90.00000  Step:        5600  Bead:       8 positions{angstrom}  cell{angstrom}
       E -9.05001e+00  2.79340e+00  3.51735e+01
       E -2.60631e+01  1.73178e+01 -2.43496e+01
       E -3.44770e+01  4.83258e+00  1.07093e+01
3
# CELL(abcABC): 1322.94304  1322.94304  1322.94304    90.00000    90.00000    90.00000  Step:        5700  Bead:       8 positions{angstrom}  cell{angstrom}
       E -3.92603e+01 -5.96195e+00  1.57927e+01
       E -7.75847e+00  3.86923e+01 -1.32339e+01
       E -1.98520e+01  2.43969e+01  1.89770e+01
3
# CELL(abcABC): 1322.94304  1322.94304  1322.94304    90.00000    90.00000    90.00000  Step:        5800  Bead:       8 positions{angstrom}  cell{angstrom}
       E -1.31933e+01  7.19040e+00 -7.44072e-01
       E -1.15425e+01  4.31625e+00  3.56897e-01
       E  9.33565e+00  2.30435e+01 -1.58093e+00
3
# CELL(abcABC): 1322.94304  1322.94304  1322.94304    90.00000    90.00000    90.00000  Step:        5900  Bead:       8 positions{angstrom}  cell{angstrom}
       E -9.07903e+00 -2.75411e+01  6.71184e+00
       E -2.81779e+01  3.88307e+01 -4.43173e+01
       E -5.42631e+00  1.40602e+01  1.99574e+00
3
# CELL(abcABC): 1322.94304  1322.94304  1322.94304    90.00000    90.00000    90.00000  Step:        6000  Bead:       8 positions{angstrom}  cell{angstrom}
       E  4.77179e+01 -6.23660e+01 -5.29279e+00
       E -2.53805e+01 -2.79205e-01 -6.23033e+00
       E  1.70756e+01  6.09689e+00 -2.75081e+00
3
# CELL(abcABC): 1322.94304  1322.94304  1322.94304    90.00000    90.00000    90.00000  Step:        6100  Bead:       8 positions{angstrom}  cell{angstrom}
       E  5.31644e+01 -8.03333e+01 -4.61756e+01
       E  5.91594e+00  2.18107e+01  2.38641e+01
       E  2.38491e+01  2.82105e+00 -4.01822e+01
3
# CELL(abcABC): 1322.94304  1322.94304  1322.94304    90.00000    90.00000    90.00000  Step:        6200  Bead:       8 positions{angstrom}  cell{angstrom}
       E  2.49941e+01 -7.12278e+01 -8.12774e+01
       E  6.79434e+01 -1.26399e+01 -2.30963e+01
       E  4.39514e+01  2.42421e+01 -4.44474e+01
3
# CELL(abcABC): 1322.94304  1322.94304  1322.94304    90.00000    90.00000    90.00000  Step:        6300  Bead:       8 positions{angstrom}  cell{angstrom}
       E  4.16050e+01 -6.67382e+01 -3.21239e+01
       E  5.69045e+01 -4.32612e+01 -2.34390e+01
       E  5.14944e+01 -1.17065e+01 -2.78959e+01
3
# CELL(abcABC): 1322.94304  1322.94304  1322.94304    90.00000    90.00000    90.00000  Step:        6400  Bead:       8 positions{angstrom}  cell{angstrom}
       E  2.23319e+01 -7.74357e+01 -6.03407e+01
       E  1.01680e+02 -6.36360e+01 -4.13616e+01
       E  3.50042e+01 -4.16579e+00 -9.30082e+00
3
# CELL(abcABC): 1322.94304  1322.94304  1322.94304    90.00000    90.00000    90.00000  Step:        6500  Bead:       8 positions{angstrom}  cell{angstrom}
       E -3.38755e+01 -1.07562e+02 -8.50059e+01
       E  4.40340e+01 -6.59677e+01 -3.52291e+01
       E  3.04085e+01 -2.61958e+01 -1.69384e+01
3
# CELL(abcABC): 1322.94304  1322.94304  1322.94304    90.00000    90.00000    90.00000  Step:        6600  Bead:       8 positions{angstrom}  cell{angstrom}
       E -4.63401e+01 -8.65652e+01 -1.22667e+02
       E -9.33835e-01 -4.63982e+01 -1.07344e+01
       E  2.02777e+01  1.88803e+00 -2.99237e+00
3
# CELL(abcABC): 1322.94304  1322.94304  1322.94304    90.00000    90.00000    90.00000  Step:        6700  Bead:       8 positions{angstrom}  cell{angstrom}
       E -9.01128e+00 -6.96372e+01 -8.70709e+01
       E  3.28740e+01 -6.20155e+01  1.37549e+00
       E  2.57497e+01  2.68652e+01 -1.31823e+01
3
# CELL(abcABC): 1322.94304  1322.94304  1322.94304    90.00000    90.00000    90.00000  Step:        6800  Bead:       8 positions{angstrom}  cell{angstrom}
       E  3.67785e+00 -5.59076e+01 -5.52061e+01
       E  1.45021e+01  1.49973e+00 -1.73365e+00
       E  8.21916e+00  5.06478e+01 -1.49345e+01
3
# CELL(abcABC): 1322.94304  1322.94304  1322.94304    90.00000    90.00000    90.00000  Step:        6900  Bead:       8 positions{angstrom}  cell{angstrom}
       E -1.82573e+01 -6.16978e+01 -4.95774e+01
       E  1.20648e+01 -6.04674e+01 -5.98572e+00
       E  2.96756e+01  3.83127e+01 -2.03746e+01
3
# CELL(abcABC): 1322.94304  1322.94304  1322.94304    90.00000    90.00000    90.00000  Step:        7000  Bead:       8 positions{angstrom}  cell{angstrom}
       E -5.15853e+01 -5.50203e+01 -3.77248e+01
       E -1.40820e+01 -3.17417e+01  2.20217e+01
       E  2.01497e+01  7.71095e+01  1.22894e+01
3
# CELL(abcABC): 1322.94304  1322.94304  1322.94304    90.00000    90.00000    90.00000  Step:        7100  Bead:       8 positions{angstrom}  cell{angstrom}
       E -3.46567e+01 -4.11387e+01 -2.42931e+01
       E -7.70708e+00 -1.69604e+01  5.14577e+01
       E -5.01957e-01  4.44232e+01  2.72725e+01
3
# CELL(abcABC): 1322.94304  1322.94304  1322.94304    90.00000    90.00000    90.00000  Step:        7200  Bead:       8 positions{angstrom}  cell{angstrom}
       E -1.24193e+01 -3.12382e+00 -1.26201e+01
       E -3.02480e+01  8.76902e+00  4.22208e+01
       E  3.48298e+01  3.94784e+01  2.33405e+01
3
# CELL(abcABC): 1322.94304  1322.94304  1322.94304    90.00000    90.00000    90.00000  Step:        7300  Bead:       8 positions{angstrom}  cell{angstrom}
       E -1.98776e+00 -2.82411e+01 -2.05891e+01
       E  1.21480e+01  2.68646e+01  2.79346e+01
       E  4.14660e+01  6.06401e+01 -3.30456e+01
3
# CELL(abcABC): 1322.94304  1322.94304  1322.94304    90.00000    90.00000    90.00000  Step:        7400  Bead:       8 positions{angstrom}  cell{angstrom}
       E -1.66576e+01 -6.84051e+01 -2.16110e+01
       E  2.51691e+01  2.65509e+01  3.43289e+01
       E  7.98869e+01  8.55685e+01  9.52820e+00
3
# CELL(abcABC): 1322.94304  1322.94304  1322.94304    90.00000    90.00000    90.00000  Step:        7500  Bead:       8 positions{angstrom}  cell{angstrom}
       E -1.81369e+01 -6.27188e+01 -2.68295e+01
       E  9.94573e+00  1.62031e+00 -1.36544e+01
       E  1.77134e+01  7.06627e+01 -2.51698e+01
3
# CELL(abcABC): 1322.94304  1322.94304  1322.94304    90.00000    90.00000    90.00000  Step:        7600  Bead:       8 positions{angstrom}  cell{angstrom}
       E -1.46171e+01 -8.14694e+01  5.43724e-01
       E -2.90437e+00 -5.29607e+01 -4.18415e+01
       E  4.90199e+01  1.04503e+01  3.34078e+01
3
# CELL(abcABC): 1322.94304  1322.94304  1322.94304    90.00000    90.00000    90.00000  Step:        7700  Bead:       8 positions{angstrom}  cell{angstrom}
       E  1.60013e+00 -2.92313e+01 -3.19571e+01
       E -1.16113e+01 -6.05966e+01 -6.36972e+01
       E  2.80355e+01 -9.53442e-01 -1.03598e+01
3
# CELL(abcABC): 1322.94304  1322.94304  1322.94304    90.00000    90.00000    90.00000  Step:        7800  Bead:       8 positions{angstrom}  cell{angstrom}
       E  3.83474e+01 -1.41465e+01 -5.07135e+01
       E  1.73562e+01 -3.14324e+01 -4.92293e+01
       E  3.36447e+01 -1.61287e+01 -8.48189e+01
3
# CELL(abcABC): 1322.94304  1322.94304  1322.94304    90.00000    90.00000    90.00000  Step:        7900  Bead:       8 positions{angstrom}  cell{angstrom}
       E  2.82292e+01 -3.20948e+01 -3.46253e+01
       E  3.40197e+01 -1.80074e+01 -4.18108e+01
       E  1.89607e+01  8.45104e+00 -5.95419e+01
3
# CELL(abcABC): 1322.94304  1322.94304  1322.94304    90.00000    90.00000    90.00000  Step:        8000  Bead:       8 positions{angstrom}  cell{angstrom}
       E  1.67809e+01  1.46715e+01 -9.32001e+00
       E  4.84853e+01 -1.64399e+01 -4.87729e+01
       E -3.06789e+01  1.19964e+01  6.87498e-01
3
# CELL(abcABC): 1322.94304  1322.94304  1322.94304    90.00000    90.00000    90.00000  Step:        8100  Bead:       8 positions{angstrom}  cell{angstrom}
       E  4.81043e+01 -1.66915e+01 -2.81670e+01
       E  1.64900e+01 -7.14473e+00  6.45578e+00
       E -2.25595e+01 -9.76031e+00  1.74565e+01
3
# CELL(abcABC): 1322.94304  1322.94304  1322.94304    90.00000    90.00000    90.00000  Step:        8200  Bead:       8 positions{angstrom}  cell{angstrom}
       E  2.64025e+01  2.35154e+01 -7.19120e+01
       E  3.04266e+01  2.02368e+01  3.47949e+01
       E  3.86270e-01 -1.98596e+01  2.34609e+01
3
# CELL(abcABC): 1322.94304  1322.94304  1322.94304    90.00000    90.00000    90.00000  Step:        8300  Bead:       8 positions{angstrom}  cell{angstrom}
       E  4.05013e+01  1.64817e+01 -9.27470e+01
       E -7.16815e+00  2.58623e+01  4.07137e+01
       E  2.53981e+01 -3.50331e+01  1.83013e+01
3
# CELL(abcABC): 1322.94304  1322.94304  1322.94304    90.00000    90.00000    90.00000  Step:        8400  Bead:       8 positions{angstrom}  cell{angstrom}
       E  2.24876e+01  2.94502e+01 -4.98777e+01
       E  1.53256e+01  2.70745e+01  2.70298e+01
       E  3.81749e+01 -1.00650e+01  4.40044e+01
3
# CELL(abcABC): 1322.94304  1322.94304  1322.94304    90.00000    90.00000    90.00000  Step:        8500  Bead:       8 positions{angstrom}  cell{angstrom}
       E -3.34453e+01  8.73560e+00 -2.58543e+01
       E  4.51687e+01 -8.21321e+00  1.72389e+01
       E  4.31800e+01 -1.15516e+01  4.41381e+01
3
# CELL(abcABC): 1322.94304  1322.94304  1322.94304    90.00000    90.00000    90.00000  Step:        8600  Bead:       8 positions{angstrom}  cell{angstrom}
       E -4.95061e+01  3.18671e+01 -1.29625e+01
       E  4.28791e+01  3.43116e+01 -2.94820e+01
       E  2.19782e+01 -1.94274e+01  2.35745e+01
3
# CELL(abcABC): 1322.94304  1322.94304  1322.94304    90.00000    90.00000    90.00000  Step:        8700  Bead:       8 positions{angstrom}  cell{angstrom}
       E -2.13542e+01  2.21852e+01 -1.18450e+01
       E  3.25739e+01  1.60361e+01  2.88924e+00
       E  2.02192e+01 -5.77839e+01  1.52135e+01
3
# CELL(abcABC): 1322.94304  1322.94304  1322.94304    90.00000    90.00000    90.00000  Step:        8800  Bead:       8 positions{angstrom}  cell{angstrom}
       E -1.23598e+01  5.63317e+01  1.66095e+01
       E  1.85007e+01  1.03845e+01 -5.60239e+00
       E  2.67590e+01 -4.31450e+01  6.82308e+01
3
# CELL(abcABC): 1322.94304  1322.94304  1322.94304    90.00000    90.00000    90.00000  Step:        8900  Bead:       8 positions{angstrom}  cell{angstrom}
       E  2.09493e+01 -1.03265e+01  9.83211e+00
       E  1.05038e+00 -4.67355e+01  3.96075e+01
       E  2.97562e+01 -6.47965e+01  5.82785e+01
3
# CELL(abcABC): 1322.94304  1322.94304  1322.94304    90.00000    90.00000    90.00000  Step:        9000  Bead:       8 positions{angstrom}  cell{angstrom}
       E -9.01849e-01  7.33048e+00  2.65151e+01
       E -7.06479e+00 -1.51652e+01  5.89188e+01
       E  2.68085e+01 -4.67973e+01  3.91375e+00
3
# CELL(abcABC): 1322.94304  1322.94304  1322.94304    90.00000    90.00000    90.00000  Step:        9100  Bead:       8 positions{angstrom}  cell{angstrom}
       E -7.88497e+00  5.47971e+01  8.94791e+00
       E -3.34709e+01 -5.19043e+00  6.06194e+01
       E  1.01879e+01 -5.31301e+01  2.39042e+01
3
# CELL(abcABC): 1322.94304  1322.94304  1322.94304    90.00000    90.00000    90.00000  Step:        9200  Bead:       8 positions{angstrom}  cell{angstrom}
       E  2.09074e+01  3.46394e+01  7.24655e+00
       E  1.27548e+01  3.63078e+00  2.54944e+01
       E  1.52658e+01 -4.21079e+01  3.20116e+01
3
# CELL(abcABC): 1322.94304  1322.94304  1322.94304    90.00000    90.00000    90.00000  Step:        9300  Bead:       8 positions{angstrom}  cell{angstrom}
       E  1.02657e+01  4.15566e+01 -9.23944e+00
       E  1.00780e+01 -2.36387e+01  2.23329e+01
       E  1.23530e+01 -5.23611e+01 -2.43282e+00
3
# CELL(abcABC): 1322.94304  1322.94304  1322.94304    90.00000    90.00000    90.00000  Step:        9400  Bead:       8 positions{angstrom}  cell{angstrom}
       E  3.32029e+01  2.82975e+01 -5.71090e+01
       E -1.26397e+01 -5.06252e+01  1.56463e+01
       E  4.74228e+01 -3.99633e+01  1.20359e+01
3
# CELL(abcABC): 1322.94304  1322.94304  1322.94304    90.00000    90.00000    90.00000  Step:        9500  Bead:       8 positions{angstrom}  cell{angstrom}
       E  1.25077e+01  2.95578e+01 -4.84682e+01
       E  1.89741e-01 -5.31036e+01  2.01094e+01
       E  2.58189e+01 -2.46480e+01  2.19266e+00
3
# CELL(abcABC): 1322.94304  1322.94304  1322.94304    90.00000    90.00000    90.00000  Step:        9600  Bead:       8 positions{angstrom}  cell{angstrom}
       E  1.93271e+00  1.11947e+01 -3.54014e+01
       E  5.53795e+01 -4.13706e+01  3.91355e+01
       E  2.99766e+00 -1.28562e+01  1.80110e+01
3
# CELL(abcABC): 1322.94304  1322.94304  1322.94304    90.00000    90.00000    90.00000  Step:        9700  Bead:       8 positions{angstrom}  cell{angstrom}
       E  4.58931e+00 -2.36711e+01 -7.28118e+01
       E  6.48413e+01 -7.20501e+01  1.35167e+01
       E  1.60688e+01 -5.43616e+01 -1.35552e-01
3
# CELL(abcABC): 1322.94304  1322.94304  1322.94304    90.00000    90.00000    90.00000  Step:        9800  Bead:       8 positions{angstrom}  cell{angstrom}
       E -3.64631e+01 -6.03749e+01 -9.00519e+01
       E  5.03475e+01 -6.43572e+01 -1.26966e+01
       E  3.14843e+00 -1.44922e+01  1.36086e+01
3