3
# CELL(abcABC): 1322.94304  1322.94304  1322.94304    90.00000    90.00000    90.00000  Step:           0  Bead:       9 positions{angstrom}  cell{angstrom}
       E  0.00000e+00  0.00000e+00  0.00000e+00
       E  0.00000e+00  0.00000e+00  0.00000e+00
       E  0.00000e+00  0.00000e+00  0.00000e+00
3
# CELL(abcABC): 1322.94304  1322.94304  1322.94304    90.00000    90.00000    90.00000  Step:         100  Bead:       9 positions{angstrom}  cell{angstrom}
       E -2.16299e+01  7.26024e+00  3.29201e+00
       E -1.54318e+01 -2.96499e+00 -3.01412e+01
       E -2.64583e+01  1.10476e+01 -7.67971e+00
3
# CELL(abcABC): 1322.94304  1322.94304  1322.94304    90.00000    90.00000    90.00000  Step:         200  Bead:       9 positions{angstrom}  cell{angstrom}
       E -1.07279e+01 -3.14737e+01 -5.10479e+01
       E  4.61328e+01 -7.16258e-01 -4.25745e+01
       E -2.71794e+01  1.38304e+00 -1.10522e+01
3
# CELL(abcABC): 1322.94304  1322.94304  1322.94304    90.00000    90.00000    90.00000  Step:         300  Bead:       9 positions{angstrom}  cell{angstrom}
       E -1.96701e+01 -2.17119e+01 -3.87330e+01
       E  1.42643e+01  5.18260e+00 -1.27561e+01
       E -2.22985e+01  1.42282e+01  1.56008e+01
3
# CELL(abcABC): 1322.94304  1322.94304  1322.94304    90.00000    90.00000    90.00000  Step:         400  Bead:       9 positions{angstrom}  cell{angstrom}
       E  8.38277e+00  1.98640e+01 -1.75881e+01
       E -1.98516e+01  4.37022e+01  7.45777e+00
       E  1.16243e+01  5.33657e+00  1.33734e+01
3
# CELL(abcABC): 1322.94304  1322.94304  1322.94304    90.00000    90.00000    90.00000  Step:         500  Bead:       9 positions{angstrom}  cell{angstrom}
       E -1.34951e+01  2.30674e+01 -7.74591e+00
       E  1.42805e+01  1.60549e+01  1.99473e+01
       E -1.20292e+01  6.86267e+00  3.88052e+01
3
# CELL(abcABC): 1322.94304  1322.94304  1322.94304    90.00000    90.00000    90.00000  Step:         600  Bead:       9 positions{angstrom}  cell{angstrom}
       E -3.46692e+01  4.23526e+01 -3.27108e+01
       E -2.10584e+01 -4.07347e+00  3.41934e+01
       E  7.41433e+00  2.50424e+00  7.40962e+00
3
# CELL(abcABC): 1322.94304  1322.94304  1322.94304    90.00000    90.00000    90.00000  Step:         700  Bead:       9 positions{angstrom}  cell{angstrom}
       E -4.38639e+00  3.91773e+01 -2.53878e+01
       E  3.08997e+00  3.30048e+01  4.04764e+01
       E -4.18186e+00  1.87768e+01  2.26331e+01
3
# CELL(abcABC): 1322.94304  1322.94304  1322.94304    90.00000    90.00000    90.00000  Step:         800  Bead:       9 positions{angstrom}  cell{angstrom}
       E -4.15618e+01  3.09273e+01 -1.97267e+01
       E  2.43764e+01  6.56122e+01  1.20630e+01
       E -7.83864e+01  1.22632e+01  6.61113e+01
3
# CELL(abcABC): 1322.94304  1322.94304  1322.94304    90.00000    90.00000    90.00000  Step:         900  Bead:       9 positions{angstrom}  cell{angstrom}
       E  1.40074e+00 -1.62795e+01  3.30478e+00
       E  3.43047e+00  1.66744e+01 -1.91610e+01
       E -3.08609e+01  2.92631e+01  7.95264e+01
3
# CELL(abcABC): 1322.94304  1322.94304  1322.94304    90.00000    90.00000    90.00000  Step:        1000  Bead:       9 positions{angstrom}  cell{angstrom}
       E -1.78944e+01  2.13382e+01 -2.45090e+01
       E -2.23205e+01 -3.77073e+00 -5.40005e+01
       E -1.16107e+01  2.62063e+01  6.55408e+01
3
# CELL(abcABC): 1322.94304  1322.94304  1322.94304    90.00000    90.00000    90.00000  Step:        1100  Bead:       9 positions{angstrom}  cell{angstrom}
       E  2.73172e+01  1.22904e+01 -6.57643e+01
       E  3.04323e+01 -1.56285e+01 -3.66881e+01
       E -9.79782e-01  3.10680e+01  4.43030e+01
3
# CELL(abcABC): 1322.94304  1322.94304  1322.94304    90.00000    90.00000    90.00000  Step:        1200  Bead:       9 positions{angstrom}  cell{angstrom}
       E  1.78922e+01  2.93259e+00 -8.00411e+01
       E  2.68395e+01 -3.23325e+01 -6.67732e+01
       E -3.57887e+00  4.59189e+01  1.64627e+01
3
# CELL(abcABC): 1322.94304  1322.94304  1322.94304    90.00000    90.00000    90.00000  Step:        1300  Bead:       9 positions{angstrom}  cell{angstrom}
       E -1.34272e+01  9.09663e+00 -8.21395e+01
       E  1.34282e+01 -4.91917e+01 -4.39198e+01
       E -3.31484e+01  3.00497e+01  3.34710e+01
3
# CELL(abcABC): 1322.94304  1322.94304  1322.94304    90.00000    90.00000    90.00000  Step:        1400  Bead:       9 positions{angstrom}  cell{angstrom}
       E -4.04828e+01 -5.67535e+00 -1.01082e+02
       E  4.14369e+00 -7.61564e+00 -4.04252e+01
       E -6.39195e+01  3.75222e+01 -1.31547e+01
3
# CELL(abcABC): 1322.94304  1322.94304  1322.94304    90.00000    90.00000    90.00000  Step:        1500  Bead:       9 positions{angstrom}  cell{angstrom}
       E -1.77199e+01  4.23824e+01 -8.06046e+01
       E -1.98305e+01 -9.77169e+00  5.61148e+00
       E -8.07328e+01  2.92443e+01  5.62301e+00
3
# CELL(abcABC): 1322.94304  1322.94304  1322.94304    90.00000    90.00000    90.00000  Step:        1600  Bead:       9 positions{angstrom}  cell{angstrom}
       E  1.26884e+01  3.76776e+01 -5.75540e+01
       E -1.35669e+01  5.87210e+01  6.40998e+00
       E -5.82464e+01  3.49809e+01 -8.88232e+00
3
# CELL(abcABC): 1322.94304  1322.94304  1322.94304    90.00000    90.00000    90.00000  Step:        1700  Bead:       9 positions{angstrom}  cell{angstrom}
       E  1.95744e+01  1.00025e+01 -1.56610e+01
       E  1.25181e+01  6.57362e+01  3.80173e+01
       E -5.30123e+01  4.18632e+01  1.14355e+01
3
# CELL(abcABC): 1322.94304  1322.94304  1322.94304    90.00000    90.00000    90.00000  Step:        1800  Bead:       9 positions{angstrom}  cell{angstrom}
       E -2.00642e+01 -1.07914e+01  8.88684e+00
       E -1.48986e+01  7.38478e+01  1.90545e+01
       E -6.76201e+01  4.96495e+01  7.54422e+01
3
# CELL(abcABC): 1322.94304  1322.94304  1322.94304    90.00000    90.00000    90.00000  Step:        1900  Bead:       9 positions{angstrom}  cell{angstrom}
       E -2.99247e+01  2.12950e+01  2.80548e+01
       E -6.18752e+01  3.03915e+01  1.55043e+01
       E -7.49789e+01  5.11403e+01  5.46348e+01
3
# CELL(abcABC): 1322.94304  1322.94304  1322.94304    90.00000    90.00000    90.00000  Step:        2000  Bead:       9 positions{angstrom}  cell{angstrom}
       E -1.52792e+01  7.23400e+00  5.38347e+01
       E -6.13750e+01  3.97701e+01  4.47033e+01
       E -9.94455e+01  4.28007e+01 -2.72530e+01
3
# CELL(abcABC): 1322.94304  1322.94304  1322.94304    90.00000    90.00000    90.00000  Step:        2100  Bead:       9 positions{angstrom}  cell{angstrom}
       E  1.82588e+00 -3.73039e+01  5.60088e+01
       E -3.34083e+01  2.17670e+01 -6.69334e+00
       E -6.39930e+01  3.48860e+01 -3.58857e+00
3
# CELL(abcABC): 1322.94304  1322.94304  1322.94304    90.00000    90.00000    90.00000  Step:        2200  Bead:       9 positions{angstrom}  cell{angstrom}
       E -2.45483e+01 -3.87004e+01  6.66425e+01
       E -4.38148e+01  1.89062e+01 -2.16243e+01
       E -4.61977e+01  7.62108e+01 -1.35212e+00
3
# CELL(abcABC): 1322.94304  1322.94304  1322.94304    90.00000    90.00000    90.00000  Step:        2300  Bead:       9 positions{angstrom}  cell{angstrom}
       E -1.51978e+01 -9.17786e+01  4.69320e+01
       E -3.55111e+01 -3.31542e+00 -1.03808e+01
       E -3.80103e+01  5.57120e+01  2.31412e+01
3
# CELL(abcABC): 1322.94304  1322.94304  1322.94304    90.00000    90.00000    90.00000  Step:        2400  Bead:       9 positions{angstrom}  cell{angstrom}
       E -1.09041e+01 -7.45292e+01  2.64383e+01
       E  8.87053e+00 -2.02967e+00 -1.32186e+01
       E -5.93843e+00  2.53614e+01  2.03313e+01
3
# CELL(abcABC): 1322.94304  1322.94304  1322.94304    90.00000    90.00000    90.00000  Step:        2500  Bead:       9 positions{angstrom}  cell{angstrom}
       E -1.06926e+01 -4.33002e+01  4.86733e+01
       E  4.03620e+00 -1.39437e+01 -5.46421e+01
       E -6.83952e+00  1.52928e+01  4.16132e+01
3
# CELL(abcABC): 1322.94304  1322.94304  1322.94304    90.00000    90.00000    90.00000  Step:        2600  Bead:       9 positions{angstrom}  cell{angstrom}
       E  1.51412e+01 -3.43038e+01  5.15184e+01
       E -4.26297e+01 -2.06971e+01 -7.55404e+01
       E -4.46525e+00 -6.50787e+00  5.32265e+01
3
# CELL(abcABC): 1322.94304  1322.94304  1322.94304    90.00000    90.00000    90.00000  Step:        2700  Bead:       9 positions{angstrom}  cell{angstrom}
       E -2.00326e+01 -3.28270e+01  6.33500e+01
       E -7.01048e+01 -2.17693e+01 -4.97260e+01
       E -1.06842e+01 -1.27649e+01  9.85989e+00
3
# CELL(abcABC): 1322.94304  1322.94304  1322.94304    90.00000    90.00000    90.00000  Step:        2800  Bead:       9 positions{angstrom}  cell{angstrom}
       E -5.06894e+01 -5.63517e+01 -4.70826e-03
       E -3.20865e+01 -6.07891e+01 -9.57562e+00
       E -6.13083e-01 -1.70399e+01  2.89641e+01
3
# CELL(abcABC): 1322.94304  1322.94304  1322.94304    90.00000    90.00000    90.00000  Step:        2900  Bead:       9 positions{angstrom}  cell{angstrom}
       E -3.30950e+01 -5.86901e+01 -1.48421e+01
       E -1.06854e+01 -3.43967e+01 -1.43203e+00
       E -1.67921e+00  3.36136e+01  1.09351e+01
3
# CELL(abcABC): 1322.94304  1322.94304  1322.94304    90.00000    90.00000    90.00000  Step:        3000  Bead:       9 positions{angstrom}  cell{angstrom}
       E -2.35672e+01 -4.74877e+01  1.34834e+01
       E  5.40209e-01 -5.14505e+01  3.90568e+01
       E  1.96619e+01  4.39447e+01 -1.66673e+01
3
# CELL(abcABC): 1322.94304  1322.94304  1322.94304    90.00000    90.00000    90.00000  Step:        3100  Bead:       9 positions{angstrom}  cell{angstrom}
       E -1.61786e+01 -3.62094e+01  2.94697e+01
       E -1.54982e+01 -6.34276e+01  5.57829e+01
       E -8.88048e+00  3.14238e+01  4.55148e-01
3
# CELL(abcABC): 1322.94304  1322.94304  1322.94304    90.00000    90.00000    90.00000  Step:        3200  Bead:       9 positions{angstrom}  cell{angstrom}
       E -3.64483e+01 -1.06409e+01  6.58130e+01
       E -4.80090e+01 -3.30871e+01  6.90578e+01
       E -2.93328e+00  6.11683e+01  1.67002e+01
3
# CELL(abcABC): 1322.94304  1322.94304  1322.94304    90.00000    90.00000    90.00000  Step:        3300  Bead:       9 positions{angstrom}  cell{angstrom}
       E -3.39351e+01 -4.97513e+01  3.51835e+01
       E -3.51753e+01 -4.29279e+01  6.34984e+01
       E -1.20441e+01  3.56381e+01  5.09961e+01
3
# CELL(abcABC): 1322.94304  1322.94304  1322.94304    90.00000    90.00000    90.00000  Step:        3400  Bead:       9 positions{angstrom}  cell{angstrom}
       E -4.97196e+01  2.02669e+00 -9.68383e-01
       E  4.90435e+00 -3.08908e+01  6.30866e+01
       E -6.51384e+01  4.61185e+01  7.39497e+01
3
# CELL(abcABC): 1322.94304  1322.94304  1322.94304    90.00000    90.00000    90.00000  Step:        3500  Bead:       9 positions{angstrom}  cell{angstrom}
       E -7.54107e+01  1.30329e+00  2.54617e+01
       E  2.46963e+01 -2.35003e+01  4.69301e+01
       E -3.20879e+01  4.91866e+01  7.40055e+01
3
# CELL(abcABC): 1322.94304  1322.94304  1322.94304    90.00000    90.00000    90.00000  Step:        3600  Bead:       9 positions{angstrom}  cell{angstrom}
       E -8.75392e+01 -3.66075e+01  2.68523e+01
       E  1.24095e+01 -1.83467e+01  6.55458e+00
       E -7.75630e+01  3.23122e+01  1.03324e+01
3
# CELL(abcABC): 1322.94304  1322.94304  1322.94304    90.00000    90.00000    90.00000  Step:        3700  Bead:       9 positions{angstrom}  cell{angstrom}
       E -7.24542e+01 -2.64752e+01  1.02640e+01
       E  9.69827e+00 -7.82255e+00  1.43016e+01
       E -4.82042e+01  6.61946e+00  1.22859e+01
3
# CELL(abcABC): 1322.94304  1322.94304  1322.94304    90.00000    90.00000    90.00000  Step:        3800  Bead:       9 positions{angstrom}  cell{angstrom}
       E -8.95701e+01 -2.00558e+01 -2.48635e+01
       E -2.03539e+01 -6.97060e+00 -2.85042e+01
       E -2.35074e+01 -7.67971e-01  9.62873e+00
3
# CELL(abcABC): 1322.94304  1322.94304  1322.94304    90.00000    90.00000    90.00000  Step:        3900  Bead:       9 positions{angstrom}  cell{angstrom}
       E -7.35681e+01  2.17958e+00 -4.17483e+01
       E -4.27810e+00 -1.60141e+01 -4.03387e+01
       E -1.62299e+01  2.27157e+01 -1.72668e+01
3
# CELL(abcABC): 1322.94304  1322.94304  1322.94304    90.00000    90.00000    90.00000  Step:        4000  Bead:       9 positions{angstrom}  cell{angstrom}
       E -1.03282e+02  1.15793e+01 -4.91009e+01
       E -6.52364e+01  1.43010e+01  1.18273e+01
       E -2.50634e+01  1.15763e+01  2.58581e+00
3
# CELL(abcABC): 1322.94304  1322.94304  1322.94304    90.00000    90.00000    90.00000  Step:        4100  Bead:       9 positions{angstrom}  cell{angstrom}
       E -7.38414e+01  4.22057e+01 -5.51781e+01
       E -4.47715e+01  1.96654e+01  4.29453e+01
       E -5.35836e+01  4.53148e+01  6.48906e+01
3
# CELL(abcABC): 1322.94304  1322.94304  1322.94304    90.00000    90.00000    90.00000  Step:        4200  Bead:       9 positions{angstrom}  cell{angstrom}
       E -3.94526e+01  3.40652e+01 -4.59034e+01
       E -6.69439e+01  8.19194e+00  7.16723e+00
       E -2.62159e+01  4.71651e+01  6.98748e+01
3
# CELL(abcABC): 1322.94304  1322.94304  1322.94304    90.00000    90.00000    90.00000  Step:        4300  Bead:       9 positions{angstrom}  cell{angstrom}
       E -2.30444e+01  1.25134e+01 -4.08763e+01
       E -9.46756e+01  1.88772e+01  3.86485e+01
       E -3.79324e+01  5.68983e+01  1.18289e+01
3
# CELL(abcABC): 1322.94304  1322.94304  1322.94304    90.00000    90.00000    90.00000  Step:        4400  Bead:       9 positions{angstrom}  cell{angstrom}
       E -4.15334e+01 -1.37881e+00 -1.88804e+01
       E -6.84426e+01  8.30926e+01  2.86683e+00
       E -4.76999e+01  1.66051e+01 -3.55882e+00
3
# CELL(abcABC): 1322.94304  1322.94304  1322.94304    90.00000    90.00000    90.00000  Step:        4500  Bead:       9 positions{angstrom}  cell{angstrom}
       E -3.97255e+01 -3.02544e+00 -3.39692e+01
       E -7.97753e+01  4.76803e+01 -2.52661e+01
       E -3.22730e+01 -7.28660e+00  1.61806e+01
3
# CELL(abcABC): 1322.94304  1322.94304  1322.94304    90.00000    90.00000    90.00000  Step:        4600  Bead:       9 positions{angstrom}  cell{angstrom}
       E  1.74493e+01  4.58965e+01 -3.57657e+01
       E -4.90867e+01  4.47096e-01 -6.00578e+01
       E -2.28431e-01  6.63427e+00  3.01979e+01
3
# CELL(abcABC): 1322.94304  1322.94304  1322.94304    90.00000    90.00000    90.00000  Step:        4700  Bead:       9 positions{angstrom}  cell{angstrom}
       E  2.98124e+01  5.77181e+01 -3.56086e+01
       E -2.85395e+01  1.94173e+01 -4.71141e+01
       E  3.42915e+01  1.17295e+00  1.23906e+01
3
# CELL(abcABC): 1322.94304  1322.94304  1322.94304    90.00000    90.00000    90.00000  Step:        4800  Bead:       9 positions{angstrom}  cell{angstrom}
       E  3.52085e+01  6.88022e+01  2.34270e+00
       E -6.67893e+01  5.98086e+01 -2.45138e+01
       E  3.15927e+01  3.00480e+01 -2.72808e+01
3
# CELL(abcABC): 1322.94304  1322.94304  1322.94304    90.00000    90.00000    90.00000  Step:        4900  Bead:       9 positions{angstrom}  cell{angstrom}
       E  3.12316e+01  3.27710e+01 -1.22287e+01
       E -5.96929e+01  6.06457e-01 -3.24077e+01
       E  3.92376e+00  1.22469e+01 -1.12888e+01
3
# CELL(abcABC): 1322.94304  1322.94304  1322.94304    90.00000    90.00000    90.00000  Step:        5000  Bead:       9 positions{angstrom}  cell{angstrom}
       E -1.40291e+01  8.89691e-01  2.73542e+01
       E -2.10458e+01  6.07669e+00 -6.42468e+01
       E  4.84748e-01 -1.44960e+01 -2.66070e+01
3
# CELL(abcABC): 1322.94304  1322.94304  1322.94304    90.00000    90.00000    90.00000  Step:        5100  Bead:       9 positions{angstrom}  cell{angstrom}
       E -2.09252e+01 -1.11087e+01  3.50222e+01
       E -1.27274e-01  1.10854e+01 -4.49420e+01
       E  6.16569e+00  1.88266e+00 -1.37384e+00
3
# CELL(abcABC): 1322.94304  1322.94304  1322.94304    90.00000    90.00000    90.00000  Step:        5200  Bead:       9 positions{angstrom}  cell{angstrom}
       E -1.72993e+01 -2.94538e+00  2.73168e+01
       E -2.19904e+01  6.14322e+01 -3.34384e+01
       E  1.10418e+01 -2.62302e+00  7.96941e+00
3
# CELL(abcABC): 1322.94304  1322.94304  1322.94304    90.00000    90.00000    90.00000  Step:        5300  Bead:       9 positions{angstrom}  cell{angstrom}
       E -1.04312e-01  3.55383e+01  4.53952e+01
       E  3.79861e+00  6.68176e+01 -3.46060e+01
       E  3.60682e+01  5.27985e+01  3.59926e+01
3
# CELL(abcABC): 1322.94304  1322.94304  1322.94304    90.00000    90.00000    90.00000  Step:        5400  Bead:       9 positions{angstrom}  cell{angstrom}
       E -9.55255e+00  3.16088e+01  3.64200e+01
       E -1.36601e+01  4.25514e+01 -6.14294e+01
       E  6.49018e+00  2.17876e+01  5.62293e+01
3
# CELL(abcABC): 1322.94304  1322.94304  1322.94304    90.00000    90.00000    90.00000  Step:        5500  Bead:       9 positions{angstrom}  cell{angstrom}
       E -2.38078e+01  4.08604e+01  6.90546e+01
       E -3.78133e+01  1.29733e+01 -4.41625e+01
       E -3.02848e+01 -6.05534e-01  1.34276e+01
3
# CELL(abcABC): 1322.94304  1322.94304  1322.94304    90.00000    90.00000    90.00000  Step:        5600  Bead:       9 positions{angstrom}  cell{angstrom}
       E -3.28843e+01 -7.14069e+00  2.86608e+01
       E -4.09304e+01  2.57822e+01 -2.49349e+01
       E -3.53801e+01 -2.04688e+00  8.53882e+00
3
# CELL(abcABC): 1322.94304  1322.94304  1322.94304    90.00000    90.00000    90.00000  Step:        5700  Bead:       9 positions{angstrom}  cell{angstrom}
       E -3.07706e+01  6.58249e+00  2.35062e+01
       E -3.77972e+01  3.78136e+01 -1.21959e+01
       E -1.10070e+01  5.73315e+00  9.96925e+00
3
# CELL(abcABC): 1322.94304  1322.94304  1322.94304    90.00000    90.00000    90.00000  Step:        5800  Bead:       9 positions{angstrom}  cell{angstrom}
       E -1.99145e+01  7.96125e-01  1.05521e+01
       E -2.87249e+01  3.28588e+01 -7.77186e+00
       E  9.60115e+00  2.77980e+01  1.37234e+01
3
# CELL(abcABC): 1322.94304  1322.94304  1322.94304    90.00000    90.00000    90.00000  Step:        5900  Bead:       9 positions{angstrom}  cell{angstrom}
       E -1.10503e+00 -2.66002e+01 -1.60221e+01
       E -4.05014e+01  2.33373e+01 -3.39667e+01
       E  1.06056e+01  1.96460e+01  2.62434e+00
3
# CELL(abcABC): 1322.94304  1322.94304  1322.94304    90.00000    90.00000    90.00000  Step:        6000  Bead:       9 positions{angstrom}  cell{angstrom}
       E  4.04897e+01 -6.93931e+01 -7.62205e+00
       E -3.77525e+01  9.93383e-01 -1.61707e+01
       E  3.40450e+01  1.58204e+01  1.83123e+01
3
# CELL(abcABC): 1322.94304  1322.94304  1322.94304    90.00000    90.00000    90.00000  Step:        6100  Bead:       9 positions{angstrom}  cell{angstrom}
       E  3.84296e+01 -7.48367e+01 -3.68558e+01
       E  1.91934e+01  1.23948e+01  2.43606e+01
       E  1.38107e+01  1.59949e+01 -3.00193e+01
3
# CELL(abcABC): 1322.94304  1322.94304  1322.94304    90.00000    90.00000    90.00000  Step:        6200  Bead:       9 positions{angstrom}  cell{angstrom}
       E  8.87032e+00 -6.47327e+01 -5.18783e+01
       E  7.16855e+01 -1.00576e+01 -2.16299e+01
       E  4.83003e+01  1.15270e+01 -3.28331e+01
3
# CELL(abcABC): 1322.94304  1322.94304  1322.94304    90.00000    90.00000    90.00000  Step:        6300  Bead:       9 positions{angstrom}  cell{angstrom}
       E  3.34203e+01 -7.21776e+01 -5.10980e+01
       E  6.60902e+01 -4.81085e+01 -2.62064e+01
       E  4.36590e+01 -4.22663e+00 -4.93734e+01
3
# CELL(abcABC): 1322.94304  1322.94304  1322.94304    90.00000    90.00000    90.00000  Step:        6400  Bead:       9 positions{angstrom}  cell{angstrom}
       E  3.40433e+01 -6.95347e+01 -7.26332e+01
       E  9.53674e+01 -3.80873e+01 -3.38530e+01
       E  1.78162e+01 -2.77429e+00 -8.08775e+00
3
# CELL(abcABC): 1322.94304  1322.94304  1322.94304    90.00000    90.00000    90.00000  Step:        6500  Bead:       9 positions{angstrom}  cell{angstrom}
       E -1.16296e+01 -1.18829e+02 -8.58624e+01
       E  4.01018e+01 -4.46774e+01 -1.56762e+01
       E  3.50815e+01 -3.88848e+01 -3.91026e+00
3
# CELL(abcABC): 1322.94304  1322.94304  1322.94304    90.00000    90.00000    90.00000  Step:        6600  Bead:       9 positions{angstrom}  cell{angstrom}
       E -3.79899e+01 -9.09303e+01 -9.86321e+01
       E  3.02967e+01 -6.01396e+01  6.17100e+00
       E  3.34717e+01  4.22390e+00  1.95837e-01
3
# CELL(abcABC): 1322.94304  1322.94304  1322.94304    90.00000    90.00000    90.00000  Step:        6700  Bead:       9 positions{angstrom}  cell{angstrom}
       E -2.06493e+01 -7.44625e+01 -9.06951e+01
       E  2.71448e+01 -5.92065e+01  2.17130e+00
       E  2.99945e+01  2.15906e+01 -1.35595e+01
3
# CELL(abcABC): 1322.94304  1322.94304  1322.94304    90.00000    90.00000    90.00000  Step:        6800  Bead:       9 positions{angstrom}  cell{angstrom}
       E  9.89665e+00 -5.24509e+01 -5.76177e+01
       E  3.38159e+01 -6.41217e+00  1.03347e+01
       E  1.22209e+01  6.78813e+01 -3.34800e+01
3
# CELL(abcABC): 1322.94304  1322.94304  1322.94304    90.00000    90.00000    90.00000  Step:        6900  Bead:       9 positions{angstrom}  cell{angstrom}
       E -1.35571e+01 -6.25800e+01 -6.22897e+01
       E -1.34145e+00 -4.65837e+01 -1.14302e+01
       E  1.76163e+01  4.45824e+01 -1.26678e+01
3
# CELL(abcABC): 1322.94304  1322.94304  1322.94304    90.00000    90.00000    90.00000  Step:        7000  Bead:       9 positions{angstrom}  cell{angstrom}
       E -4.99249e+01 -5.39004e+01 -2.67294e+01
       E -2.01016e+00 -2.95374e+01  2.11500e+01
       E  3.52021e+00  5.30442e+01  2.06630e+01
3
# CELL(abcABC): 1322.94304  1322.94304  1322.94304    90.00000    90.00000    90.00000  Step:        7100  Bead:       9 positions{angstrom}  cell{angstrom}
       E -1.86635e+01 -3.59735e+01 -9.26695e+00
       E -4.45497e+00 -2.33254e+01  5.98206e+01
       E -1.69055e+00  5.07713e+01  4.20177e+01
3
# CELL(abcABC): 1322.94304  1322.94304  1322.94304    90.00000    90.00000    90.00000  Step:        7200  Bead:       9 positions{angstrom}  cell{angstrom}
       E -4.04055e+00 -1.68103e+01 -8.21893e+00
       E -2.68537e+01  9.72316e+00  3.89686e+01
       E  2.95881e+01  6.23612e+01  1.11314e+01
3
# CELL(abcABC): 1322.94304  1322.94304  1322.94304    90.00000    90.00000    90.00000  Step:        7300  Bead:       9 positions{angstrom}  cell{angstrom}
       E -2.84088e+01 -2.14658e+01 -3.88727e+01
       E  8.89766e-01  4.10229e+01  3.37524e+01
       E  6.77571e+01  6.64066e+01 -1.60315e+01
3
# CELL(abcABC): 1322.94304  1322.94304  1322.94304    90.00000    90.00000    90.00000  Step:        7400  Bead:       9 positions{angstrom}  cell{angstrom}
       E -5.39321e+00 -5.50386e+01 -3.56934e+01
       E  2.00797e+01  3.65842e+01  1.52264e+01
       E  7.05664e+01  9.10820e+01  8.85504e+00
3
# CELL(abcABC): 1322.94304  1322.94304  1322.94304    90.00000    90.00000    90.00000  Step:        7500  Bead:       9 positions{angstrom}  cell{angstrom}
       E -1.20411e+01 -6.55591e+01 -4.70638e+01
       E  1.39156e+00 -6.98125e+00 -1.40434e+01
       E  2.30181e+01  5.78566e+01 -1.00077e+01
3
# CELL(abcABC): 1322.94304  1322.94304  1322.94304    90.00000    90.00000    90.00000  Step:        7600  Bead:       9 positions{angstrom}  cell{angstrom}
       E -4.21176e+00 -6.53956e+01 -1.80291e+01
       E  1.37701e+01 -4.97166e+01 -4.72061e+01
       E  2.86557e+01  2.59862e+01  2.17883e+01
3
# CELL(abcABC): 1322.94304  1322.94304  1322.94304    90.00000    90.00000    90.00000  Step:        7700  Bead:       9 positions{angstrom}  cell{angstrom}
       E  9.17366e+00 -3.42766e+01 -3.04965e+01
       E  9.50581e+00 -4.88101e+01 -5.09705e+01
       E  1.92640e+01  2.22712e-01 -1.35549e+01
3
# CELL(abcABC): 1322.94304  1322.94304  1322.94304    90.00000    90.00000    90.00000  Step:        7800  Bead:       9 positions{angstrom}  cell{angstrom}
       E  2.73739e+01 -1.05445e+01 -4.71475e+01
       E  5.79237e-01 -5.89363e+01 -2.58020e+01
       E  2.88378e+01 -7.15767e+00 -8.49550e+01
3
# CELL(abcABC): 1322.94304  1322.94304  1322.94304    90.00000    90.00000    90.00000  Step:        7900  Bead:       9 positions{angstrom}  cell{angstrom}
       E  3.34764e+01 -2.87855e+01 -3.34293e+01
       E  1.47491e+01 -2.74009e+01 -3.00687e+01
       E  9.03973e+00 -1.03608e+00 -6.26887e+01
3
# CELL(abcABC): 1322.94304  1322.94304  1322.94304    90.00000    90.00000    90.00000  Step:        8000  Bead:       9 positions{angstrom}  cell{angstrom}
       E  2.78272e+01 -7.12187e+00  4.42572e+00
       E  4.97025e+01 -3.48239e+01 -2.99381e+01
       E -4.11637e+01  2.74144e+01 -2.59416e+01
3
# CELL(abcABC): 1322.94304  1322.94304  1322.94304    90.00000    90.00000    90.00000  Step:        8100  Bead:       9 positions{angstrom}  cell{angstrom}
       E  5.54726e+01  1.94638e+01 -4.22324e+01
       E  2.51977e+01  3.24670e+00 -7.60924e+00
       E -1.69899e+01 -2.31569e-01  1.31534e+01
3
# CELL(abcABC): 1322.94304  1322.94304  1322.94304    90.00000    90.00000    90.00000  Step:        8200  Bead:       9 positions{angstrom}  cell{angstrom}
       E  3.14487e+01  3.26362e+01 -7.84304e+01
       E -4.20802e+00  1.63367e+01  2.51854e+01
       E -9.04361e+00 -2.82078e+01  1.16398e+01
3
# CELL(abcABC): 1322.94304  1322.94304  1322.94304    90.00000    90.00000    90.00000  Step:        8300  Bead:       9 positions{angstrom}  cell{angstrom}
       E  2.58326e+01  2.30090e+01 -7.78664e+01
       E -4.82682e+00  5.40371e+01  1.92083e+01
       E  3.32062e+01 -5.94372e+01  5.03329e+01
3
# CELL(abcABC): 1322.94304  1322.94304  1322.94304    90.00000    90.00000    90.00000  Step:        8400  Bead:       9 positions{angstrom}  cell{angstrom}
       E  1.64493e+01  2.82255e+01 -3.28381e+01
       E  3.13457e+01  4.10239e+01  3.27162e+01
       E  1.62702e+01 -3.35630e+01  3.56111e+01
3
# CELL(abcABC): 1322.94304  1322.94304  1322.94304    90.00000    90.00000    90.00000  Step:        8500  Bead:       9 positions{angstrom}  cell{angstrom}
       E -3.97139e+01  7.48449e+00 -3.01185e+01
       E  3.44884e+01  1.74949e+01  1.28879e+01
       E  2.17323e+01 -3.57365e+01  5.09761e+01
3
# CELL(abcABC): 1322.94304  1322.94304  1322.94304    90.00000    90.00000    90.00000  Step:        8600  Bead:       9 positions{angstrom}  cell{angstrom}
       E -5.35077e+01  1.66518e+01 -1.27359e+01
       E  2.06891e+01  2.71334e+01 -4.29141e+01
       E  3.16204e+01 -1.84122e+01  3.51736e+01
3
# CELL(abcABC): 1322.94304  1322.94304  1322.94304    90.00000    90.00000    90.00000  Step:        8700  Bead:       9 positions{angstrom}  cell{angstrom}
       E -2.45021e+01  4.35439e+01  1.79797e+00
       E  2.08106e+01  8.58830e+00  1.20815e+00
       E  1.94831e+01 -3.94547e+01  2.06533e+01
3
# CELL(abcABC): 1322.94304  1322.94304  1322.94304    90.00000    90.00000    90.00000  Step:        8800  Bead:       9 positions{angstrom}  cell{angstrom}
       E -2.14082e+01  4.41869e+01  2.04912e+01
       E  3.03668e+01  7.44568e+00 -1.54628e+00
       E  3.01454e+01 -6.29656e+01  4.37426e+01
3
# CELL(abcABC): 1322.94304  1322.94304  1322.94304    90.00000    90.00000    90.00000  Step:        8900  Bead:       9 positions{angstrom}  cell{angstrom}
       E -1.88607e+01 -2.42448e+01 -7.39240e+00
       E  1.87598e+01 -3.93926e+01  4.59190e+01
       E  1.01404e+01 -6.37451e+01  5.90787e+01
3
# CELL(abcABC): 1322.94304  1322.94304  1322.94304    90.00000    90.00000    90.00000  Step:        9000  Bead:       9 positions{angstrom}  cell{angstrom}
       E -6.39708e+00  1.25736e+01  2.27283e+01
       E -3.19298e+00 -1.65749e+00  6.15736e+01
       E  1.74150e+01 -4.73346e+01 -5.79442e+00
3
# CELL(abcABC): 1322.94304  1322.94304  1322.94304    90.00000    90.00000    90.00000  Step:        9100  Bead:       9 positions{angstrom}  cell{angstrom}
       E -2.34240e+00  3.71656e+01 -4.11390e+00
       E -6.71043e+01 -9.15311e+00  5.09787e+01
       E  4.46117e+00 -2.06475e+01  4.68925e+01
3
# CELL(abcABC): 1322.94304  1322.94304  1322.94304    90.00000    90.00000    90.00000  Step:        9200  Bead:       9 positions{angstrom}  cell{angstrom}
       E -2.14558e+00  3.59666e+01  7.79201e+00
       E  2.26003e+01 -6.17269e+00  2.10122e+01
       E  3.26585e+00 -6.72074e+01  3.47364e+01
3
# CELL(abcABC): 1322.94304  1322.94304  1322.94304    90.00000    90.00000    90.00000  Step:        9300  Bead:       9 positions{angstrom}  cell{angstrom}
       E  1.56287e+01  4.90195e+01 -1.49236e+01
       E -7.92788e+00 -1.17367e+01  1.77346e+01
       E  1.93382e+01 -5.72939e+01 -1.52868e+01
3
# CELL(abcABC): 1322.94304  1322.94304  1322.94304    90.00000    90.00000    90.00000  Step:        9400  Bead:       9 positions{angstrom}  cell{angstrom}
       E  3.22249e+01  4.90359e+01 -6.22421e+01
       E -1.25083e+01 -4.50566e+01  3.30066e+01
       E  4.20686e+01 -4.85171e+01  1.64374e+01
3
# CELL(abcABC): 1322.94304  1322.94304  1322.94304    90.00000    90.00000    90.00000  Step:        9500  Bead:       9 positions{angstrom}  cell{angstrom}
       E  8.76564e+00  4.19050e+01 -4.83554e+01
       E -2.08345e+01 -5.82994e+01  2.76879e+01
       E  3.79043e+01 -3.63515e+01 -1.94461e-01
3
# CELL(abcABC): 1322.94304  1322.94304  1322.94304    90.00000    90.00000    90.00000  Step:        9600  Bead:       9 positions{angstrom}  cell{angstrom}
       E  2.93638e+01  3.51405e+01 -3.34178e+01
       E  4.76908e+01 -3.46764e+01  4.49199e+01
       E -3.21495e+00 -2.12838e+01  4.75869e+00
3
# CELL(abcABC): 1322.94304  1322.94304  1322.94304    90.00000    90.00000    90.00000  Step:        9700  Bead:       9 positions{angstrom}  cell{angstrom}
       E -3.59936e-01 -2.48605e+01 -7.13049e+01
       E  7.14179e+01 -5.66440e+01  2.21176e+01
       E  2.60478e+01 -4.10571e+01  1.05404e+01
3
# CELL(abcABC): 1322.94304  1322.94304  1322.94304    90.00000    90.00000    90.00000  Step:        9800  Bead:       9 positions{angstrom}  cell{angstrom}
       E -2.99080e+01 -7.06527e+01 -7.55256e+01
       E  3.44013e+01 -5.69207e+01 -5.11365e+00
       E  2.79908e+01 -8.09238e+00  9.72498e+00
3