3
# CELL(abcABC): 1322.94304  1322.94304  1322.94304    90.00000    90.00000    90.00000  Step:           0  Bead:      17 positions{angstrom}  cell{angstrom}
       E  0.00000e+00  0.00000e+00  0.00000e+00
       E  0.00000e+00  0.00000e+00  0.00000e+00
       E  0.00000e+00  0.00000e+00  0.00000e+00
3
# CELL(abcABC): 1322.94304  1322.94304  1322.94304    90.00000    90.00000    90.00000  Step:         100  Bead:      17 positions{angstrom}  cell{angstrom}
       E  1.50592e+01 -1.92789e+01 -1.99779e+01
       E -2.23333e+00 -2.79992e+01 -3.67506e+00
       E -1.75186e+01  1.40951e+01 -2.80902e+01
3
# CELL(abcABC): 1322.94304  1322.94304  1322.94304    90.00000    90.00000    90.00000  Step:         200  Bead:      17 positions{angstrom}  cell{angstrom}
       E  5.66776e+00  2.99530e+00  8.90509e+00
       E  7.79584e+00 -4.18674e+01 -1.10742e+01
       E  5.10641e+00  2.32976e+01 -2.56815e+01
3
# CELL(abcABC): 1322.94304  1322.94304  1322.94304    90.00000    90.00000    90.00000  Step:         300  Bead:      17 positions{angstrom}  cell{angstrom}
       E -1.13600e+01 -1.74143e+01  1.48705e+01
       E -2.14583e+00 -7.19806e+00 -1.91711e+01
       E -1.84575e+01  3.95289e+01 -7.98436e+00
3
# CELL(abcABC): 1322.94304  1322.94304  1322.94304    90.00000    90.00000    90.00000  Step:         400  Bead:      17 positions{angstrom}  cell{angstrom}
       E -1.46244e+01  4.07032e+01  1.88663e+01
       E  3.68467e+01  3.40812e+00  1.78827e+00
       E -9.18705e+00  2.06956e+01  2.17912e+00
3
# CELL(abcABC): 1322.94304  1322.94304  1322.94304    90.00000    90.00000    90.00000  Step:         500  Bead:      17 positions{angstrom}  cell{angstrom}
       E -3.55217e+01  1.22279e+01  2.47825e+00
       E  3.33081e+01  5.33695e+00 -1.07220e+01
       E  6.16180e+00 -1.63549e+01  2.41710e+01
3
# CELL(abcABC): 1322.94304  1322.94304  1322.94304    90.00000    90.00000    90.00000  Step:         600  Bead:      17 positions{angstrom}  cell{angstrom}
       E -8.21112e+00 -2.50488e+01 -1.12120e+01
       E  1.20289e+01  1.30069e+01 -1.36615e+00
       E -6.63740e+00 -1.88595e+01  2.45778e+01
3
# CELL(abcABC): 1322.94304  1322.94304  1322.94304    90.00000    90.00000    90.00000  Step:         700  Bead:      17 positions{angstrom}  cell{angstrom}
       E -4.06002e+00  1.01410e+01  1.05040e+01
       E  4.70037e+01  3.63062e+01 -2.73434e+00
       E -1.32992e+00 -3.57997e+01  9.70821e+00
3
# CELL(abcABC): 1322.94304  1322.94304  1322.94304    90.00000    90.00000    90.00000  Step:         800  Bead:      17 positions{angstrom}  cell{angstrom}
       E -5.21443e+00  1.04920e+01  1.13011e+01
       E  3.11546e+01  2.55769e+01  1.45263e+01
       E -5.15474e+01 -3.66524e+01  7.95480e+01
3
# CELL(abcABC): 1322.94304  1322.94304  1322.94304    90.00000    90.00000    90.00000  Step:         900  Bead:      17 positions{angstrom}  cell{angstrom}
       E -1.88823e+01  3.11568e+01 -2.30985e+01
       E  2.60653e+01  3.18085e+01 -2.10078e+01
       E -4.52918e+01 -2.58491e+01  5.83514e+01
3
# CELL(abcABC): 1322.94304  1322.94304  1322.94304    90.00000    90.00000    90.00000  Step:        1000  Bead:      17 positions{angstrom}  cell{angstrom}
       E -7.42094e+00  2.45227e+00 -3.58509e+01
       E -2.25994e+00  1.51615e+01 -2.63995e+01
       E -3.32869e+01 -1.90256e+01  5.01367e+01
3
# CELL(abcABC): 1322.94304  1322.94304  1322.94304    90.00000    90.00000    90.00000  Step:        1100  Bead:      17 positions{angstrom}  cell{angstrom}
       E  3.07248e+01 -1.71746e+01 -4.56687e+01
       E  8.47812e+00  1.25643e+01 -2.25177e+01
       E -1.10915e+01  2.81101e+01  4.66409e+00
3
# CELL(abcABC): 1322.94304  1322.94304  1322.94304    90.00000    90.00000    90.00000  Step:        1200  Bead:      17 positions{angstrom}  cell{angstrom}
       E -1.90377e+01  5.83484e-02 -8.23590e+01
       E  1.99950e+01 -4.59470e+01  2.16482e+00
       E  1.28773e+01  6.23871e+01 -1.94153e+01
3
# CELL(abcABC): 1322.94304  1322.94304  1322.94304    90.00000    90.00000    90.00000  Step:        1300  Bead:      17 positions{angstrom}  cell{angstrom}
       E -2.06441e+01  1.94353e+00 -7.51256e+01
       E  5.42562e+01 -1.58116e+01 -1.43549e+01
       E  1.14776e+00  3.02138e+01 -4.47096e+01
3
# CELL(abcABC): 1322.94304  1322.94304  1322.94304    90.00000    90.00000    90.00000  Step:        1400  Bead:      17 positions{angstrom}  cell{angstrom}
       E -1.32454e+01  2.62574e+01 -7.44513e+01
       E  1.28514e+01  7.78238e+00 -1.66212e+01
       E  1.56738e+01  5.65031e+00 -4.99611e+00
3
# CELL(abcABC): 1322.94304  1322.94304  1322.94304    90.00000    90.00000    90.00000  Step:        1500  Bead:      17 positions{angstrom}  cell{angstrom}
       E  9.02311e+00  2.73564e+01 -4.66615e+01
       E -3.06310e+01  3.84541e+01  8.93983e+00
       E -5.91565e+00  1.79123e+01 -8.28285e+00
3
# CELL(abcABC): 1322.94304  1322.94304  1322.94304    90.00000    90.00000    90.00000  Step:        1600  Bead:      17 positions{angstrom}  cell{angstrom}
       E -1.54254e+01  3.00576e+01 -4.83887e+01
       E -1.29717e+01  6.45086e+01  1.07450e+01
       E -1.86531e+01  6.49951e+00 -8.59847e+00
3
# CELL(abcABC): 1322.94304  1322.94304  1322.94304    90.00000    90.00000    90.00000  Step:        1700  Bead:      17 positions{angstrom}  cell{angstrom}
       E  2.37631e+01  1.17201e+01  3.31090e+01
       E -2.91107e+01  6.96066e+01  4.84534e+01
       E -4.20204e+01  3.21619e+01  7.95096e+00
3
# CELL(abcABC): 1322.94304  1322.94304  1322.94304    90.00000    90.00000    90.00000  Step:        1800  Bead:      17 positions{angstrom}  cell{angstrom}
       E  1.67146e+01  3.76683e+01  3.86253e+01
       E -7.20325e+01  6.61208e+01  2.23469e+01
       E -9.28490e+01  6.47238e+01  3.03466e+01
3
# CELL(abcABC): 1322.94304  1322.94304  1322.94304    90.00000    90.00000    90.00000  Step:        1900  Bead:      17 positions{angstrom}  cell{angstrom}
       E  8.75844e+00  1.01561e+01  5.22231e+01
       E -5.58778e+01  5.94516e+01 -1.01934e+01
       E -8.23538e+01  5.42721e+01  2.09530e+01
3
# CELL(abcABC): 1322.94304  1322.94304  1322.94304    90.00000    90.00000    90.00000  Step:        2000  Bead:      17 positions{angstrom}  cell{angstrom}
       E -1.58774e+00 -1.38228e+01  6.80620e+01
       E -7.23726e+01  5.39900e+01  1.26578e+01
       E -8.77308e+01  6.89154e+01  3.76368e+01
3
# CELL(abcABC): 1322.94304  1322.94304  1322.94304    90.00000    90.00000    90.00000  Step:        2100  Bead:      17 positions{angstrom}  cell{angstrom}
       E -3.58767e+01 -1.65057e+01  5.33497e+01
       E -4.96084e+01  3.73567e+01  1.71741e+01
       E -7.75696e+01  8.87268e+01  2.03774e+01
3
# CELL(abcABC): 1322.94304  1322.94304  1322.94304    90.00000    90.00000    90.00000  Step:        2200  Bead:      17 positions{angstrom}  cell{angstrom}
       E -3.36604e+01 -4.26007e+01  5.35275e+01
       E -2.91845e+01 -1.79410e+01 -1.64001e+01
       E -4.94652e+01  4.81472e+01  9.83478e+00
3
# CELL(abcABC): 1322.94304  1322.94304  1322.94304    90.00000    90.00000    90.00000  Step:        2300  Bead:      17 positions{angstrom}  cell{angstrom}
       E -4.47202e+01 -5.40585e+01  5.31823e+01
       E -3.44927e+00 -5.96655e+00 -3.77012e+00
       E -1.60027e+01  3.33951e+01  3.11781e+01
3
# CELL(abcABC): 1322.94304  1322.94304  1322.94304    90.00000    90.00000    90.00000  Step:        2400  Bead:      17 positions{angstrom}  cell{angstrom}
       E -5.06673e+01 -6.79020e+01  1.44029e+01
       E -5.98575e+00  8.30910e+00  7.53022e+00
       E -2.75554e+01  3.86585e-01  2.52746e+01
3
# CELL(abcABC): 1322.94304  1322.94304  1322.94304    90.00000    90.00000    90.00000  Step:        2500  Bead:      17 positions{angstrom}  cell{angstrom}
       E -2.73671e+01 -1.27860e+01  1.27326e+01
       E  1.10976e+01 -3.77678e+01 -5.02545e+01
       E  2.97571e+01  2.42468e+00  2.49665e+01
3
# CELL(abcABC): 1322.94304  1322.94304  1322.94304    90.00000    90.00000    90.00000  Step:        2600  Bead:      17 positions{angstrom}  cell{angstrom}
       E -2.92469e+01 -7.71542e+00  1.07735e+01
       E -4.46953e+01 -3.01516e+01 -4.72124e+01
       E  5.04753e+00 -3.64648e+01  1.16274e+01
3
# CELL(abcABC): 1322.94304  1322.94304  1322.94304    90.00000    90.00000    90.00000  Step:        2700  Bead:      17 positions{angstrom}  cell{angstrom}
       E -2.92607e+01  2.00219e+00  3.18572e+01
       E -5.30115e+01 -1.52735e+01  8.24376e+00
       E  4.33562e+01 -1.56102e+01  1.44078e+01
3
# CELL(abcABC): 1322.94304  1322.94304  1322.94304    90.00000    90.00000    90.00000  Step:        2800  Bead:      17 positions{angstrom}  cell{angstrom}
       E -2.68161e+01  2.62047e-01  3.45522e+01
       E -6.37626e+01 -4.72718e+01 -2.40136e+01
       E  2.08259e+01 -3.31490e+01 -4.71782e-03
3
# CELL(abcABC): 1322.94304  1322.94304  1322.94304    90.00000    90.00000    90.00000  Step:        2900  Bead:      17 positions{angstrom}  cell{angstrom}
       E -6.72975e+01 -5.73326e-01  6.02665e+01
       E -6.04157e+01 -4.64626e+01 -2.13607e+01
       E -1.49626e+01 -2.04700e+00 -1.29317e+01
3
# CELL(abcABC): 1322.94304  1322.94304  1322.94304    90.00000    90.00000    90.00000  Step:        3000  Bead:      17 positions{angstrom}  cell{angstrom}
       E -4.88124e+01  1.85029e+00  5.72475e+01
       E -4.75473e+01 -5.02032e+01  2.65371e+01
       E  5.89294e+00  2.79876e+01  5.89161e+00
3
# CELL(abcABC): 1322.94304  1322.94304  1322.94304    90.00000    90.00000    90.00000  Step:        3100  Bead:      17 positions{angstrom}  cell{angstrom}
       E -5.85093e+01 -1.56939e+01  3.67220e+01
       E -6.84172e+01 -5.15614e+01  1.20597e+01
       E  2.12086e+01  3.85727e+01  2.08632e+01
3
# CELL(abcABC): 1322.94304  1322.94304  1322.94304    90.00000    90.00000    90.00000  Step:        3200  Bead:      17 positions{angstrom}  cell{angstrom}
       E -4.71534e+01  1.79839e+01 -1.51192e+01
       E -7.58705e+01 -1.42515e+01  5.78549e+01
       E  5.20436e+01  6.53922e+01  4.65488e+01
3
# CELL(abcABC): 1322.94304  1322.94304  1322.94304    90.00000    90.00000    90.00000  Step:        3300  Bead:      17 positions{angstrom}  cell{angstrom}
       E -3.19796e+01  4.07607e+00  1.65493e+01
       E -4.69502e+01 -3.61525e+01  4.72879e+01
       E  1.07681e+01  7.10356e+01  5.78984e+01
3
# CELL(abcABC): 1322.94304  1322.94304  1322.94304    90.00000    90.00000    90.00000  Step:        3400  Bead:      17 positions{angstrom}  cell{angstrom}
       E -7.22121e+01 -7.70332e+00  4.01977e+01
       E -5.38125e+01  8.38604e+00  6.04346e+01
       E  3.14546e+00  6.05583e+01  2.85430e+01
3
# CELL(abcABC): 1322.94304  1322.94304  1322.94304    90.00000    90.00000    90.00000  Step:        3500  Bead:      17 positions{angstrom}  cell{angstrom}
       E -1.04679e+02 -4.88703e+00  4.24909e+01
       E -1.48231e+01 -1.36917e+01  3.23732e+01
       E -1.37372e+01  1.50202e+01  4.20378e+01
3
# CELL(abcABC): 1322.94304  1322.94304  1322.94304    90.00000    90.00000    90.00000  Step:        3600  Bead:      17 positions{angstrom}  cell{angstrom}
       E -9.10350e+01 -5.96958e+00  2.03076e+01
       E  2.29914e+01  5.37806e+00  1.55423e+00
       E -1.42896e+01 -5.69681e+00  2.96772e+01
3
# CELL(abcABC): 1322.94304  1322.94304  1322.94304    90.00000    90.00000    90.00000  Step:        3700  Bead:      17 positions{angstrom}  cell{angstrom}
       E -7.96965e+01 -1.04717e+01 -3.31412e+01
       E -6.45471e+00  1.11091e+01  1.61927e+01
       E -4.98081e+01  3.30850e+01 -6.31807e-01
3
# CELL(abcABC): 1322.94304  1322.94304  1322.94304    90.00000    90.00000    90.00000  Step:        3800  Bead:      17 positions{angstrom}  cell{angstrom}
       E -1.00548e+02 -1.27568e+01 -4.69534e+01
       E -1.37482e+01 -4.96216e+01 -9.69769e+00
       E -6.93869e+01 -3.77463e+00 -2.70705e+01
3
# CELL(abcABC): 1322.94304  1322.94304  1322.94304    90.00000    90.00000    90.00000  Step:        3900  Bead:      17 positions{angstrom}  cell{angstrom}
       E -1.11744e+02 -6.38565e+00 -5.12539e+01
       E -5.89165e+01 -3.95943e+01 -7.43863e+00
       E -1.98095e+01  1.81478e+01 -2.76486e+01
3
# CELL(abcABC): 1322.94304  1322.94304  1322.94304    90.00000    90.00000    90.00000  Step:        4000  Bead:      17 positions{angstrom}  cell{angstrom}
       E -8.97863e+01  2.36224e+01 -4.62859e+01
       E -4.78637e+01  6.87507e+00  4.96191e+01
       E -1.20668e+01  2.24557e+01  2.76980e+00
3
# CELL(abcABC): 1322.94304  1322.94304  1322.94304    90.00000    90.00000    90.00000  Step:        4100  Bead:      17 positions{angstrom}  cell{angstrom}
       E -3.64002e+01  3.75968e+01 -7.85076e+01
       E -8.40447e+01  4.27915e+01  1.82872e+01
       E -2.70140e+01 -2.26912e+01  2.16654e+01
3
# CELL(abcABC): 1322.94304  1322.94304  1322.94304    90.00000    90.00000    90.00000  Step:        4200  Bead:      17 positions{angstrom}  cell{angstrom}
       E -4.85634e+01 -1.80521e+01 -9.15634e+01
       E -8.35252e+01  3.72354e+01  3.02315e+01
       E -2.39736e+00 -6.55667e+00  7.83244e+01
3
# CELL(abcABC): 1322.94304  1322.94304  1322.94304    90.00000    90.00000    90.00000  Step:        4300  Bead:      17 positions{angstrom}  cell{angstrom}
       E -4.69090e+01  3.05988e+01 -5.23213e+01
       E -4.97331e+01  4.35752e+01  2.49831e+01
       E  1.02399e+01 -2.09491e+01  5.41203e+01
3
# CELL(abcABC): 1322.94304  1322.94304  1322.94304    90.00000    90.00000    90.00000  Step:        4400  Bead:      17 positions{angstrom}  cell{angstrom}
       E -3.64771e+01  8.03955e+00 -2.42129e+01
       E -3.77776e+01  6.17521e+01 -1.84667e+01
       E -4.34371e+00 -1.79140e+01  3.05189e+00
3
# CELL(abcABC): 1322.94304  1322.94304  1322.94304    90.00000    90.00000    90.00000  Step:        4500  Bead:      17 positions{angstrom}  cell{angstrom}
       E -3.91213e+01  3.27229e+01 -5.99015e+01
       E -5.92442e+01  5.99717e+01 -3.91555e+01
       E -1.24536e+01 -1.05156e+01  1.39326e+01
3
# CELL(abcABC): 1322.94304  1322.94304  1322.94304    90.00000    90.00000    90.00000  Step:        4600  Bead:      17 positions{angstrom}  cell{angstrom}
       E -1.40478e+01  1.19433e+01 -3.49430e+01
       E -4.93876e+01  9.04075e+01 -5.55401e+01
       E -4.77693e+00  2.71875e+01 -1.28331e+01
3
# CELL(abcABC): 1322.94304  1322.94304  1322.94304    90.00000    90.00000    90.00000  Step:        4700  Bead:      17 positions{angstrom}  cell{angstrom}
       E -3.14384e+01  3.06781e+01 -2.97906e+01
       E -4.03502e+01  3.74546e+01 -4.65179e+01
       E  2.42515e+01  1.32787e+01 -6.76301e-01
3
# CELL(abcABC): 1322.94304  1322.94304  1322.94304    90.00000    90.00000    90.00000  Step:        4800  Bead:      17 positions{angstrom}  cell{angstrom}
       E -3.17168e+01 -1.33746e+00 -1.29541e+01
       E -1.36964e+01 -9.86059e-03 -2.90955e+01
       E  1.70132e+01  1.37374e+01  2.07353e+01
3
# CELL(abcABC): 1322.94304  1322.94304  1322.94304    90.00000    90.00000    90.00000  Step:        4900  Bead:      17 positions{angstrom}  cell{angstrom}
       E -6.94520e+00 -2.50256e+00  1.60273e+01
       E -8.70903e+00  1.83783e+01 -3.12711e+01
       E  1.99297e+01 -4.28804e-01  4.31661e+00
3
# CELL(abcABC): 1322.94304  1322.94304  1322.94304    90.00000    90.00000    90.00000  Step:        5000  Bead:      17 positions{angstrom}  cell{angstrom}
       E -9.19254e+00 -4.55406e+01  2.07063e+01
       E -4.32446e+00  1.08600e+01 -6.19539e+01
       E  1.79555e+01  6.57164e+00 -1.09006e+01
3
# CELL(abcABC): 1322.94304  1322.94304  1322.94304    90.00000    90.00000    90.00000  Step:        5100  Bead:      17 positions{angstrom}  cell{angstrom}
       E -1.67435e+01  6.22240e+00  2.51303e+01
       E -2.37237e+00  3.87154e+01 -6.38413e+01
       E -6.53379e+00 -2.05963e+01 -2.30801e+01
3
# CELL(abcABC): 1322.94304  1322.94304  1322.94304    90.00000    90.00000    90.00000  Step:        5200  Bead:      17 positions{angstrom}  cell{angstrom}
       E -4.09171e+01 -2.82489e+00  1.76378e+01
       E -6.60291e+00  4.49108e+01 -3.42369e+01
       E -1.93817e+01  3.55042e+01  5.61859e+00
3
# CELL(abcABC): 1322.94304  1322.94304  1322.94304    90.00000    90.00000    90.00000  Step:        5300  Bead:      17 positions{angstrom}  cell{angstrom}
       E -4.10716e+01 -9.43894e+00  2.24461e+01
       E  7.39463e+00  7.08860e+01 -9.57039e+00
       E -3.19841e+01  5.18801e+01  3.52731e+01
3
# CELL(abcABC): 1322.94304  1322.94304  1322.94304    90.00000    90.00000    90.00000  Step:        5400  Bead:      17 positions{angstrom}  cell{angstrom}
       E -3.03682e+01 -4.72869e+01  2.60780e+01
       E  2.74034e+01  2.27500e+00 -1.98916e+01
       E -3.99384e+01  4.05499e+00  4.34579e+01
3
# CELL(abcABC): 1322.94304  1322.94304  1322.94304    90.00000    90.00000    90.00000  Step:        5500  Bead:      17 positions{angstrom}  cell{angstrom}
       E -9.94624e+00 -6.83753e-01  5.66008e+00
       E -2.71403e+00 -4.11675e+00 -8.76388e+00
       E -3.89919e+01 -1.80620e+01  6.51674e+01
3
# CELL(abcABC): 1322.94304  1322.94304  1322.94304    90.00000    90.00000    90.00000  Step:        5600  Bead:      17 positions{angstrom}  cell{angstrom}
       E -1.34323e+01 -9.84366e+00 -9.03384e+00
       E -5.24476e+01 -3.50521e+01  5.63255e+00
       E -3.85433e+01 -1.89141e+01  2.14140e+01
3
# CELL(abcABC): 1322.94304  1322.94304  1322.94304    90.00000    90.00000    90.00000  Step:        5700  Bead:      17 positions{angstrom}  cell{angstrom}
       E -4.13746e+00 -5.89469e+01 -2.61127e+01
       E -6.27589e+01  1.40077e+01  8.90470e+00
       E -2.40216e+01 -7.86086e+00  6.11644e+00
3
# CELL(abcABC): 1322.94304  1322.94304  1322.94304    90.00000    90.00000    90.00000  Step:        5800  Bead:      17 positions{angstrom}  cell{angstrom}
       E -1.46640e+01 -2.21182e+01 -1.43697e+01
       E -2.33547e+01  5.42700e+01 -2.85855e+01
       E -4.08035e+01  1.94531e+01 -1.34249e+01
3
# CELL(abcABC): 1322.94304  1322.94304  1322.94304    90.00000    90.00000    90.00000  Step:        5900  Bead:      17 positions{angstrom}  cell{angstrom}
       E  3.35752e+01 -3.26402e+00 -2.46255e+01
       E -8.48807e+00  1.78840e-02  1.61700e+01
       E  1.18193e+00  8.55386e+00 -2.96596e+01
3
# CELL(abcABC): 1322.94304  1322.94304  1322.94304    90.00000    90.00000    90.00000  Step:        6000  Bead:      17 positions{angstrom}  cell{angstrom}
       E  2.06613e+00 -4.50486e+01  2.62785e+01
       E  1.35578e+01  4.84435e+00  9.84023e+00
       E  7.54386e+00  1.42262e+01  7.49949e+00
3
# CELL(abcABC): 1322.94304  1322.94304  1322.94304    90.00000    90.00000    90.00000  Step:        6100  Bead:      17 positions{angstrom}  cell{angstrom}
       E -5.25800e+00 -4.73728e+01 -3.16775e+01
       E  4.78607e+01  1.05781e+01  2.00437e+01
       E  2.48873e+01  2.15723e+01 -3.36552e+01
3
# CELL(abcABC): 1322.94304  1322.94304  1322.94304    90.00000    90.00000    90.00000  Step:        6200  Bead:      17 positions{angstrom}  cell{angstrom}
       E -1.55152e+01 -3.06976e+01 -5.91584e+01
       E  8.22022e+01  3.29119e+01 -1.59960e+01
       E  2.40716e+01  6.92452e-01  9.95613e+00
3
# CELL(abcABC): 1322.94304  1322.94304  1322.94304    90.00000    90.00000    90.00000  Step:        6300  Bead:      17 positions{angstrom}  cell{angstrom}
       E -1.07980e+01 -5.41564e+01 -6.16287e+01
       E  9.07454e+01  1.45216e+01 -3.53912e+01
       E  1.61640e+01 -1.51541e+01 -1.36479e+01
3
# CELL(abcABC): 1322.94304  1322.94304  1322.94304    90.00000    90.00000    90.00000  Step:        6400  Bead:      17 positions{angstrom}  cell{angstrom}
       E -9.30117e+00 -4.85022e+01 -7.11314e+01
       E  3.62477e+01  1.43062e+01 -4.57262e+01
       E  5.56672e+01 -6.49101e-01 -1.74202e+01
3
# CELL(abcABC): 1322.94304  1322.94304  1322.94304    90.00000    90.00000    90.00000  Step:        6500  Bead:      17 positions{angstrom}  cell{angstrom}
       E  4.43367e-01 -7.70490e+01 -7.25800e+01
       E -1.29386e+01  1.22060e+01 -2.19009e+01
       E  7.41455e+01 -3.05009e+01 -5.16870e+01
3
# CELL(abcABC): 1322.94304  1322.94304  1322.94304    90.00000    90.00000    90.00000  Step:        6600  Bead:      17 positions{angstrom}  cell{angstrom}
       E  8.34560e+00 -7.72800e+01 -5.24541e+01
       E -1.96662e+00 -2.30817e+01 -1.78587e+00
       E  6.28228e+01 -2.06701e+01 -1.89956e+01
3
# CELL(abcABC): 1322.94304  1322.94304  1322.94304    90.00000    90.00000    90.00000  Step:        6700  Bead:      17 positions{angstrom}  cell{angstrom}
       E -1.87270e+00 -1.05397e+02 -5.92688e+01
       E  3.30666e+00  3.52274e+01 -4.79858e+00
       E  2.16490e+01 -7.72576e+00  2.14224e+01
3
# CELL(abcABC): 1322.94304  1322.94304  1322.94304    90.00000    90.00000    90.00000  Step:        6800  Bead:      17 positions{angstrom}  cell{angstrom}
       E -2.08135e+01 -1.08375e+02 -5.02551e+01
       E -1.06422e+01 -1.14828e+01 -1.14450e+01
       E  3.68124e+01 -2.64908e+00 -1.43327e+01
3
# CELL(abcABC): 1322.94304  1322.94304  1322.94304    90.00000    90.00000    90.00000  Step:        6900  Bead:      17 positions{angstrom}  cell{angstrom}
       E -3.57928e+00 -8.80661e+01 -3.46604e+01
       E -3.60263e+00 -3.91046e+01 -1.20503e+01
       E  1.23429e+01 -1.00782e+01 -1.20844e+01
3
# CELL(abcABC): 1322.94304  1322.94304  1322.94304    90.00000    90.00000    90.00000  Step:        7000  Bead:      17 positions{angstrom}  cell{angstrom}
       E  4.26744e+01 -7.87514e+01  4.57522e+00
       E  1.06078e+00 -1.48112e+01  2.42171e+01
       E -5.32742e-01  1.97990e+01 -3.85810e+01
3
# CELL(abcABC): 1322.94304  1322.94304  1322.94304    90.00000    90.00000    90.00000  Step:        7100  Bead:      17 positions{angstrom}  cell{angstrom}
       E  4.88750e+01 -2.62715e+01  2.43949e+01
       E  1.32665e-01 -2.68235e-01  1.99044e+01
       E  5.76016e+01  2.67623e+01 -5.81044e+01
3
# CELL(abcABC): 1322.94304  1322.94304  1322.94304    90.00000    90.00000    90.00000  Step:        7200  Bead:      17 positions{angstrom}  cell{angstrom}
       E  4.00202e+01 -4.27741e+01 -2.79609e+01
       E -2.64424e+01  3.06993e+01  4.23865e+01
       E  2.49792e+01  4.29311e+01 -2.41865e+01
3
# CELL(abcABC): 1322.94304  1322.94304  1322.94304    90.00000    90.00000    90.00000  Step:        7300  Bead:      17 positions{angstrom}  cell{angstrom}
       E  2.70141e+01 -5.08557e+01 -6.62452e+01
       E -1.49405e+01  3.25302e+01  2.61642e+01
       E  3.34217e+01  6.06950e+01 -1.23656e+01
3
# CELL(abcABC): 1322.94304  1322.94304  1322.94304    90.00000    90.00000    90.00000  Step:        7400  Bead:      17 positions{angstrom}  cell{angstrom}
       E  2.61913e+01 -3.47253e+01 -3.74677e+01
       E -3.53200e-01  2.21920e+01  9.15706e-01
       E  2.20060e+01  2.06432e+01  2.21142e+01
3
# CELL(abcABC): 1322.94304  1322.94304  1322.94304    90.00000    90.00000    90.00000  Step:        7500  Bead:      17 positions{angstrom}  cell{angstrom}
       E  5.06038e+00 -7.54685e+01 -4.43569e+01
       E -2.77790e+01 -1.27185e+01  1.06780e+00
       E  3.84922e+01  3.91906e+01  1.66162e+01
3
# CELL(abcABC): 1322.94304  1322.94304  1322.94304    90.00000    90.00000    90.00000  Step:        7600  Bead:      17 positions{angstrom}  cell{angstrom}
       E  1.62492e+01 -5.57128e+01 -2.35471e+01
       E  1.44194e+01 -1.31233e+01 -4.05919e+01
       E  7.61338e+00  8.84121e+00 -9.33426e+00
3
# CELL(abcABC): 1322.94304  1322.94304  1322.94304    90.00000    90.00000    90.00000  Step:        7700  Bead:      17 positions{angstrom}  cell{angstrom}
       E  2.19658e+01 -3.56169e+01 -1.05661e+01
       E  1.34707e+01 -2.98045e+01 -5.32246e+01
       E  4.78587e+01 -1.00699e+01 -3.11694e+01
3
# CELL(abcABC): 1322.94304  1322.94304  1322.94304    90.00000    90.00000    90.00000  Step:        7800  Bead:      17 positions{angstrom}  cell{angstrom}
       E  3.59091e+01 -5.97694e+01 -1.60996e+01
       E  6.42096e+00 -1.20925e+01 -1.03481e+01
       E  4.76204e+00 -2.32822e+01 -2.19082e+01
3
# CELL(abcABC): 1322.94304  1322.94304  1322.94304    90.00000    90.00000    90.00000  Step:        7900  Bead:      17 positions{angstrom}  cell{angstrom}
       E  3.54647e+01 -5.23850e+01 -3.31102e+01
       E  9.48245e+00  1.70220e+01 -4.97150e+01
       E -2.16928e+01 -2.94575e+01 -4.95986e+01
3
# CELL(abcABC): 1322.94304  1322.94304  1322.94304    90.00000    90.00000    90.00000  Step:        8000  Bead:      17 positions{angstrom}  cell{angstrom}
       E  2.43419e+01 -4.20509e+00 -1.27852e+01
       E  3.19559e+00  1.00716e+01 -1.57829e+01
       E -9.55463e+00 -3.04455e+01 -3.68212e+01
3
# CELL(abcABC): 1322.94304  1322.94304  1322.94304    90.00000    90.00000    90.00000  Step:        8100  Bead:      17 positions{angstrom}  cell{angstrom}
       E -8.87311e+00  3.45886e-01 -4.86350e+01
       E -2.98873e+01  4.37400e+01  4.87896e+00
       E  3.24713e+00 -2.02323e+01 -3.23042e+00
3
# CELL(abcABC): 1322.94304  1322.94304  1322.94304    90.00000    90.00000    90.00000  Step:        8200  Bead:      17 positions{angstrom}  cell{angstrom}
       E  1.22144e+01  2.30646e+01 -7.74256e+01
       E -9.29402e+00 -7.34106e+00 -2.23949e+01
       E -4.73787e+01 -6.79336e+01  6.28719e+01
3
# CELL(abcABC): 1322.94304  1322.94304  1322.94304    90.00000    90.00000    90.00000  Step:        8300  Bead:      17 positions{angstrom}  cell{angstrom}
       E  3.81623e+01  3.35446e+01 -4.71455e+01
       E -1.80459e+01  1.09703e+01 -2.47425e+00
       E  6.76258e+00 -4.22953e+01  8.55675e+01
3
# CELL(abcABC): 1322.94304  1322.94304  1322.94304    90.00000    90.00000    90.00000  Step:        8400  Bead:      17 positions{angstrom}  cell{angstrom}
       E -1.13362e+01  2.11994e+01 -3.69141e+01
       E  3.67624e+01  4.86766e+01  3.36559e+01
       E -5.40777e+00 -5.40491e+01  6.21075e+01
3
# CELL(abcABC): 1322.94304  1322.94304  1322.94304    90.00000    90.00000    90.00000  Step:        8500  Bead:      17 positions{angstrom}  cell{angstrom}
       E -2.28804e+01 -2.37236e+01 -3.11831e+00
       E  5.43963e+01  6.46405e+00 -4.81138e+01
       E  1.36086e+00 -4.81371e+01  4.31454e+01
3
# CELL(abcABC): 1322.94304  1322.94304  1322.94304    90.00000    90.00000    90.00000  Step:        8600  Bead:      17 positions{angstrom}  cell{angstrom}
       E  4.41078e+00 -3.47899e+01 -2.60548e+01
       E  4.14793e+01  2.05197e+01 -2.45178e+01
       E  9.52298e+00 -2.16164e+01  3.21832e+01
3
# CELL(abcABC): 1322.94304  1322.94304  1322.94304    90.00000    90.00000    90.00000  Step:        8700  Bead:      17 positions{angstrom}  cell{angstrom}
       E -5.61766e+00 -1.72678e+01 -1.17079e+01
       E  2.48300e+01  1.14639e+01 -4.26610e+01
       E  2.36459e+01 -3.92004e+01  5.06058e+01
3
# CELL(abcABC): 1322.94304  1322.94304  1322.94304    90.00000    90.00000    90.00000  Step:        8800  Bead:      17 positions{angstrom}  cell{angstrom}
       E -9.98526e+00  2.71049e+01  4.48999e+00
       E  2.83812e+01 -1.11763e+01 -1.57859e+01
       E  4.92321e+01 -4.67268e+01  2.88478e+01
3
# CELL(abcABC): 1322.94304  1322.94304  1322.94304    90.00000    90.00000    90.00000  Step:        8900  Bead:      17 positions{angstrom}  cell{angstrom}
       E -4.39060e+01  4.83396e+01  3.40900e+01
       E  1.36370e+00 -8.71805e+00  2.91287e+01
       E  4.66940e+01 -6.07088e+01  3.23931e+01
3
# CELL(abcABC): 1322.94304  1322.94304  1322.94304    90.00000    90.00000    90.00000  Step:        9000  Bead:      17 positions{angstrom}  cell{angstrom}
       E -4.66912e+01  5.09544e+01  3.32631e+01
       E  8.86738e+00  1.65763e+00  5.19763e+01
       E  4.16012e+01 -3.72942e+01  2.72577e+01
3
# CELL(abcABC): 1322.94304  1322.94304  1322.94304    90.00000    90.00000    90.00000  Step:        9100  Bead:      17 positions{angstrom}  cell{angstrom}
       E -1.33551e+01  1.37391e+01  2.19914e+01
       E  3.43933e+01 -1.50851e+01  7.13634e+01
       E  3.12296e+01 -1.30332e+01  2.33198e+01
3
# CELL(abcABC): 1322.94304  1322.94304  1322.94304    90.00000    90.00000    90.00000  Step:        9200  Bead:      17 positions{angstrom}  cell{angstrom}
       E  4.18284e+01  3.02366e+01  1.10417e+01
       E -2.74972e+01  9.29813e+00  7.34719e+01
       E  3.35122e+01 -6.14962e+01 -2.09116e+01
3
# CELL(abcABC): 1322.94304  1322.94304  1322.94304    90.00000    90.00000    90.00000  Step:        9300  Bead:      17 positions{angstrom}  cell{angstrom}
       E  8.65657e+00  9.41011e+00  7.10228e+00
       E -3.83475e+01  7.62822e+00  7.89053e-01
       E -1.08282e+01 -4.31296e+01  3.34931e+00
3
# CELL(abcABC): 1322.94304  1322.94304  1322.94304    90.00000    90.00000    90.00000  Step:        9400  Bead:      17 positions{angstrom}  cell{angstrom}
       E -5.11485e+00  4.28320e+01 -1.52724e+01
       E -3.13399e+01 -3.13223e+01  2.50389e+01
       E -1.16661e+01 -4.57632e+01 -6.99506e+00
3
# CELL(abcABC): 1322.94304  1322.94304  1322.94304    90.00000    90.00000    90.00000  Step:        9500  Bead:      17 positions{angstrom}  cell{angstrom}
       E  3.61216e+01  5.88088e+01 -5.79506e+01
       E -8.50380e+00 -4.70716e+01 -8.47049e+00
       E  1.06587e+01 -2.30653e+01  4.68200e+01
3
# CELL(abcABC): 1322.94304  1322.94304  1322.94304    90.00000    90.00000    90.00000  Step:        9600  Bead:      17 positions{angstrom}  cell{angstrom}
       E  8.01770e+00  6.57819e+00 -5.47188e+01
       E  2.02633e+01 -5.06575e+01  3.01480e+01
       E -9.64469e+00 -3.19118e+01 -2.31355e+00
3
# CELL(abcABC): 1322.94304  1322.94304  1322.94304    90.00000    90.00000    90.00000  Step:        9700  Bead:      17 positions{angstrom}  cell{angstrom}
       E  1.57130e+00 -4.11956e+01 -3.46708e+01
       E  1.91358e+01 -7.76030e+01  2.15802e+01
       E  6.53218e+00  2.86711e+01  7.54003e+00
3
# CELL(abcABC): 1322.94304  1322.94304  1322.94304    90.00000    90.00000    90.00000  Step:        9800  Bead:      17 positions{angstrom}  cell{angstrom}
       E -2.94632e+01 -5.45992e+01 -2.32529e+01
       E  1.80012e+01 -9.36982e+01  3.66357e-01
       E -3.55521e+00 -2.88134e+01  2.81950e+01
3