3
# CELL(abcABC): 1322.94304  1322.94304  1322.94304    90.00000    90.00000    90.00000  Step:           0  Bead:      12 positions{angstrom}  cell{angstrom}
       E  0.00000e+00  0.00000e+00  0.00000e+00
       E  0.00000e+00  0.00000e+00  0.00000e+00
       E  0.00000e+00  0.00000e+00  0.00000e+00
3
# CELL(abcABC): 1322.94304  1322.94304  1322.94304    90.00000    90.00000    90.00000  Step:         100  Bead:      12 positions{angstrom}  cell{angstrom}
       E  2.30659e+00 -5.90171e+00  8.45773e+00
       E  1.01116e+01  9.20351e+00 -1.10422e+01
       E -2.58257e+01  1.04990e+01 -2.94682e+01
3
# CELL(abcABC): 1322.94304  1322.94304  1322.94304    90.00000    90.00000    90.00000  Step:         200  Bead:      12 positions{angstrom}  cell{angstrom}
       E -8.50123e+00 -1.85792e+01 -1.48001e+01
       E  2.34974e+01 -2.52647e+01 -2.80244e+01
       E -3.23389e+01 -4.38981e+00  2.94803e+00
3
# CELL(abcABC): 1322.94304  1322.94304  1322.94304    90.00000    90.00000    90.00000  Step:         300  Bead:      12 positions{angstrom}  cell{angstrom}
       E -1.95150e+01  2.47366e+01 -1.96722e+01
       E  6.87363e+00  9.72265e+00 -2.35188e+01
       E -2.82764e+01  3.47968e+01  3.71354e+01
3
# CELL(abcABC): 1322.94304  1322.94304  1322.94304    90.00000    90.00000    90.00000  Step:         400  Bead:      12 positions{angstrom}  cell{angstrom}
       E -1.57016e+01  1.64950e+01  7.90028e+00
       E  1.45390e+01  6.83706e+01 -1.40507e-01
       E -1.22279e+01  3.57571e+00  3.19126e+01
3
# CELL(abcABC): 1322.94304  1322.94304  1322.94304    90.00000    90.00000    90.00000  Step:         500  Bead:      12 positions{angstrom}  cell{angstrom}
       E -7.66439e+00  3.19826e+01 -2.86154e+01
       E  1.87790e+01  4.82768e+01  1.32372e+01
       E  1.44067e+01  2.76115e+01  2.78722e+01
3
# CELL(abcABC): 1322.94304  1322.94304  1322.94304    90.00000    90.00000    90.00000  Step:         600  Bead:      12 positions{angstrom}  cell{angstrom}
       E  1.24868e+01 -2.02557e+00 -5.36758e+01
       E  1.35731e+00 -1.03036e+01  3.25985e+01
       E  1.84545e+01  9.24030e+00  3.29628e+01
3
# CELL(abcABC): 1322.94304  1322.94304  1322.94304    90.00000    90.00000    90.00000  Step:         700  Bead:      12 positions{angstrom}  cell{angstrom}
       E  2.28578e+00  4.50675e+01 -1.25658e+01
       E  7.34654e+00  2.67208e+01  4.94133e+01
       E  1.51858e+01  7.57829e+00  1.49371e+01
3
# CELL(abcABC): 1322.94304  1322.94304  1322.94304    90.00000    90.00000    90.00000  Step:         800  Bead:      12 positions{angstrom}  cell{angstrom}
       E -1.42391e+01  8.11883e+00  1.56247e+01
       E -9.22350e+00  3.64446e+01 -1.75107e+01
       E -2.97357e+01  1.85128e+01  2.10817e+01
3
# CELL(abcABC): 1322.94304  1322.94304  1322.94304    90.00000    90.00000    90.00000  Step:         900  Bead:      12 positions{angstrom}  cell{angstrom}
       E  2.50856e+01  7.76846e+00  2.00673e+01
       E  9.31894e+00  4.50792e+01 -3.22402e+01
       E -2.88272e+01 -8.26240e+00  4.89879e+01
3
# CELL(abcABC): 1322.94304  1322.94304  1322.94304    90.00000    90.00000    90.00000  Step:        1000  Bead:      12 positions{angstrom}  cell{angstrom}
       E  7.70103e+00  5.58435e+00 -3.11805e+01
       E  9.12799e+00 -1.37338e+01 -4.88316e+01
       E -1.10999e+01 -4.65871e+00  6.85210e+01
3
# CELL(abcABC): 1322.94304  1322.94304  1322.94304    90.00000    90.00000    90.00000  Step:        1100  Bead:      12 positions{angstrom}  cell{angstrom}
       E  1.19179e+01 -1.22300e+01 -5.85718e+01
       E -5.02580e+00 -3.29144e+01 -3.50123e+01
       E  6.85175e+00  3.29165e+01  2.24233e+01
3
# CELL(abcABC): 1322.94304  1322.94304  1322.94304    90.00000    90.00000    90.00000  Step:        1200  Bead:      12 positions{angstrom}  cell{angstrom}
       E -5.20331e+00 -3.12493e+00 -8.12475e+01
       E  1.53162e+01 -7.36533e+00 -3.11970e+01
       E  6.92861e+00  4.44315e+01  1.98823e+01
3
# CELL(abcABC): 1322.94304  1322.94304  1322.94304    90.00000    90.00000    90.00000  Step:        1300  Bead:      12 positions{angstrom}  cell{angstrom}
       E -1.47316e+01 -4.76559e+00 -7.79657e+01
       E  3.03063e+01 -1.04289e+01 -4.55200e+01
       E -1.27944e+01  4.78561e+01  1.93181e+01
3
# CELL(abcABC): 1322.94304  1322.94304  1322.94304    90.00000    90.00000    90.00000  Step:        1400  Bead:      12 positions{angstrom}  cell{angstrom}
       E  2.28741e+01  6.23593e+00 -9.45322e+01
       E -6.28873e+00 -5.92424e+00 -3.86367e+01
       E -3.44363e+01  3.69723e+01 -6.52365e+00
3
# CELL(abcABC): 1322.94304  1322.94304  1322.94304    90.00000    90.00000    90.00000  Step:        1500  Bead:      12 positions{angstrom}  cell{angstrom}
       E -1.19249e+01  2.17183e+01 -9.66117e+01
       E -1.76726e+01  1.51620e+00 -2.77080e+00
       E -4.84144e+01  6.28722e+00 -1.06287e+01
3
# CELL(abcABC): 1322.94304  1322.94304  1322.94304    90.00000    90.00000    90.00000  Step:        1600  Bead:      12 positions{angstrom}  cell{angstrom}
       E  3.10345e+01  5.59153e+01 -6.17785e+01
       E -1.39281e+01  3.57167e+01  1.36840e+01
       E -6.00896e+01  3.68453e+01 -9.55984e+00
3
# CELL(abcABC): 1322.94304  1322.94304  1322.94304    90.00000    90.00000    90.00000  Step:        1700  Bead:      12 positions{angstrom}  cell{angstrom}
       E  3.03198e+01  9.97327e+00 -6.23277e-01
       E  2.41933e+01  9.33848e+01  2.67112e+01
       E -5.57652e+01  2.97457e+01  4.52154e+00
3
# CELL(abcABC): 1322.94304  1322.94304  1322.94304    90.00000    90.00000    90.00000  Step:        1800  Bead:      12 positions{angstrom}  cell{angstrom}
       E  2.60804e+01  1.55791e+01  2.51652e+01
       E -1.48511e+01  6.38002e+01  2.67585e+01
       E -6.91533e+01  6.31628e+01  4.94943e+01
3
# CELL(abcABC): 1322.94304  1322.94304  1322.94304    90.00000    90.00000    90.00000  Step:        1900  Bead:      12 positions{angstrom}  cell{angstrom}
       E -2.33333e+01 -8.61578e+00  5.38770e+01
       E -5.79219e+01  7.05000e+01  5.03773e+01
       E -7.64090e+01  4.62849e+01  1.85637e+01
3
# CELL(abcABC): 1322.94304  1322.94304  1322.94304    90.00000    90.00000    90.00000  Step:        2000  Bead:      12 positions{angstrom}  cell{angstrom}
       E -2.68466e+01 -1.34753e+01  4.65519e+01
       E -4.82070e+01  4.97484e+01  2.28570e+01
       E -9.58897e+01  6.06589e+01  1.54050e+01
3
# CELL(abcABC): 1322.94304  1322.94304  1322.94304    90.00000    90.00000    90.00000  Step:        2100  Bead:      12 positions{angstrom}  cell{angstrom}
       E -1.78873e+01 -5.13480e+01  7.11355e+01
       E -3.29705e+01  3.02487e+01 -2.46083e+01
       E -8.29029e+01  5.30983e+01  1.80858e+01
3
# CELL(abcABC): 1322.94304  1322.94304  1322.94304    90.00000    90.00000    90.00000  Step:        2200  Bead:      12 positions{angstrom}  cell{angstrom}
       E -4.67901e+01 -5.03645e+01  7.65911e+01
       E -4.06940e+00 -4.69533e+00 -6.13651e+01
       E -3.96091e+01  9.18822e+01 -1.08336e+01
3
# CELL(abcABC): 1322.94304  1322.94304  1322.94304    90.00000    90.00000    90.00000  Step:        2300  Bead:      12 positions{angstrom}  cell{angstrom}
       E -4.98219e+00 -6.99186e+01  6.19877e+01
       E -3.34012e+01  6.09237e+00 -1.01462e+01
       E -3.93415e+01  4.12829e+01  2.71148e+01
3
# CELL(abcABC): 1322.94304  1322.94304  1322.94304    90.00000    90.00000    90.00000  Step:        2400  Bead:      12 positions{angstrom}  cell{angstrom}
       E -2.80968e+01 -7.78336e+01  2.70456e+01
       E  2.41647e+01 -7.83991e+00 -2.30137e+01
       E -5.83682e+00  2.52305e+01  3.53731e+01
3
# CELL(abcABC): 1322.94304  1322.94304  1322.94304    90.00000    90.00000    90.00000  Step:        2500  Bead:      12 positions{angstrom}  cell{angstrom}
       E -1.04401e+01 -1.38859e+01  3.70453e+01
       E -1.67016e+01 -3.75929e+01 -2.56778e+01
       E  3.52546e+00 -2.02643e+01  1.05293e+01
3
# CELL(abcABC): 1322.94304  1322.94304  1322.94304    90.00000    90.00000    90.00000  Step:        2600  Bead:      12 positions{angstrom}  cell{angstrom}
       E -1.73477e+01 -6.81246e+00  1.37793e+01
       E -3.55986e+01 -2.67874e+01 -2.31825e+01
       E  8.99968e+00 -2.40203e+01  2.71130e+01
3
# CELL(abcABC): 1322.94304  1322.94304  1322.94304    90.00000    90.00000    90.00000  Step:        2700  Bead:      12 positions{angstrom}  cell{angstrom}
       E -5.50420e+00 -5.63879e+00  4.12482e+01
       E -4.61999e+01 -2.10167e+01 -2.23743e+01
       E -1.21646e+01 -2.45231e+01  1.68215e+01
3
# CELL(abcABC): 1322.94304  1322.94304  1322.94304    90.00000    90.00000    90.00000  Step:        2800  Bead:      12 positions{angstrom}  cell{angstrom}
       E -3.11967e+01 -3.08033e+01  1.90192e+00
       E -4.59940e+01 -6.14308e+01  9.25356e+00
       E  2.88025e+00 -9.41010e+00  2.86611e+01
3
# CELL(abcABC): 1322.94304  1322.94304  1322.94304    90.00000    90.00000    90.00000  Step:        2900  Bead:      12 positions{angstrom}  cell{angstrom}
       E -4.19940e+01 -3.68695e+01  1.97253e+01
       E -6.52326e+00 -4.58424e+01  1.54288e+01
       E  2.33074e+01  1.80035e+01 -4.29293e+00
3
# CELL(abcABC): 1322.94304  1322.94304  1322.94304    90.00000    90.00000    90.00000  Step:        3000  Bead:      12 positions{angstrom}  cell{angstrom}
       E -6.04002e+01 -4.83449e+01  5.19650e+00
       E -1.87966e+01 -7.39992e+01  2.97256e+01
       E  1.12297e+00  3.82050e+01 -4.57085e+00
3
# CELL(abcABC): 1322.94304  1322.94304  1322.94304    90.00000    90.00000    90.00000  Step:        3100  Bead:      12 positions{angstrom}  cell{angstrom}
       E -3.56182e+01 -2.38993e+01  1.24883e+01
       E -4.06836e+01 -4.15993e+01  5.99886e+01
       E  1.26169e+01  3.94322e+01  2.37118e+01
3
# CELL(abcABC): 1322.94304  1322.94304  1322.94304    90.00000    90.00000    90.00000  Step:        3200  Bead:      12 positions{angstrom}  cell{angstrom}
       E -3.91190e+01 -3.77071e+01  1.64986e+01
       E -6.16431e+01 -2.21006e+01  5.66197e+01
       E  1.79324e+01  7.12880e+01  5.09449e+01
3
# CELL(abcABC): 1322.94304  1322.94304  1322.94304    90.00000    90.00000    90.00000  Step:        3300  Bead:      12 positions{angstrom}  cell{angstrom}
       E -4.61025e+01 -4.54001e+01 -1.37079e+01
       E -4.92160e+01 -2.37518e+01  7.33660e+01
       E -2.89329e+01  5.52512e+01  3.70799e+01
3
# CELL(abcABC): 1322.94304  1322.94304  1322.94304    90.00000    90.00000    90.00000  Step:        3400  Bead:      12 positions{angstrom}  cell{angstrom}
       E -4.12181e+01 -6.66734e+00  1.66552e+01
       E -1.92247e+01 -1.30150e+01  7.45337e+01
       E -6.17351e+01  4.33499e+01  4.77507e+01
3
# CELL(abcABC): 1322.94304  1322.94304  1322.94304    90.00000    90.00000    90.00000  Step:        3500  Bead:      12 positions{angstrom}  cell{angstrom}
       E -5.41875e+01 -4.21201e+00  4.04717e+01
       E  1.62135e+01  1.86285e+01  2.85533e+01
       E -3.44145e+01  6.67064e+01  5.75120e+01
3
# CELL(abcABC): 1322.94304  1322.94304  1322.94304    90.00000    90.00000    90.00000  Step:        3600  Bead:      12 positions{angstrom}  cell{angstrom}
       E -5.40555e+01 -4.01263e+00  1.10329e+01
       E -1.38910e+00 -1.19289e+01 -5.40516e+00
       E -5.02258e+00  5.68894e+01  1.71057e+01
3
# CELL(abcABC): 1322.94304  1322.94304  1322.94304    90.00000    90.00000    90.00000  Step:        3700  Bead:      12 positions{angstrom}  cell{angstrom}
       E -6.69316e+01 -1.61304e+01 -2.40197e+00
       E -2.06760e+01 -1.03667e+01  2.20025e+01
       E -3.75549e+01  2.35767e+01 -4.22484e+00
3
# CELL(abcABC): 1322.94304  1322.94304  1322.94304    90.00000    90.00000    90.00000  Step:        3800  Bead:      12 positions{angstrom}  cell{angstrom}
       E -7.90590e+01 -1.66144e+01 -3.50590e+01
       E -2.71128e+01 -2.30138e+01 -1.68459e+01
       E -2.61163e+01  6.99860e+00 -1.49265e+01
3
# CELL(abcABC): 1322.94304  1322.94304  1322.94304    90.00000    90.00000    90.00000  Step:        3900  Bead:      12 positions{angstrom}  cell{angstrom}
       E -1.15044e+02 -1.77099e+01 -2.19975e+01
       E -6.21810e+00 -2.44999e+00 -5.82003e+00
       E -2.18130e+01  3.50183e+01 -2.57197e+01
3
# CELL(abcABC): 1322.94304  1322.94304  1322.94304    90.00000    90.00000    90.00000  Step:        4000  Bead:      12 positions{angstrom}  cell{angstrom}
       E -9.33247e+01  3.85718e+01 -8.28622e+01
       E -5.84513e+01  1.36781e+01  3.27334e+01
       E -3.18156e+01  3.48139e+01  2.92731e+00
3
# CELL(abcABC): 1322.94304  1322.94304  1322.94304    90.00000    90.00000    90.00000  Step:        4100  Bead:      12 positions{angstrom}  cell{angstrom}
       E -6.38057e+01  1.26508e+01 -4.64629e+01
       E -5.77894e+01  3.36735e+01  5.82634e+01
       E -1.66249e+01  1.75179e+01  6.21470e+01
3
# CELL(abcABC): 1322.94304  1322.94304  1322.94304    90.00000    90.00000    90.00000  Step:        4200  Bead:      12 positions{angstrom}  cell{angstrom}
       E -3.90940e+01  3.72687e+01 -5.71308e+01
       E -6.34685e+01  3.83115e+01  2.91157e+01
       E  7.82438e-01  3.93340e+01  6.31914e+01
3
# CELL(abcABC): 1322.94304  1322.94304  1322.94304    90.00000    90.00000    90.00000  Step:        4300  Bead:      12 positions{angstrom}  cell{angstrom}
       E -4.71223e+01  2.91973e+01 -7.43236e+01
       E -5.41531e+01  2.80231e+01  3.85161e+01
       E -1.80562e+01  6.60133e+01  5.85410e+01
3
# CELL(abcABC): 1322.94304  1322.94304  1322.94304    90.00000    90.00000    90.00000  Step:        4400  Bead:      12 positions{angstrom}  cell{angstrom}
       E -5.78135e+01 -9.58661e+00 -4.22746e+01
       E -7.14695e+01  5.09523e+01 -7.74831e-02
       E -5.12010e+01  2.36537e+01 -1.02631e+01
3
# CELL(abcABC): 1322.94304  1322.94304  1322.94304    90.00000    90.00000    90.00000  Step:        4500  Bead:      12 positions{angstrom}  cell{angstrom}
       E -4.09502e+01  1.01561e+01 -3.15771e+01
       E -9.07658e+01  5.04436e+01 -2.69759e+01
       E -2.22487e+01 -9.67059e+00  1.80777e+01
3
# CELL(abcABC): 1322.94304  1322.94304  1322.94304    90.00000    90.00000    90.00000  Step:        4600  Bead:      12 positions{angstrom}  cell{angstrom}
       E  1.43449e+01  1.91571e+01 -3.27661e+01
       E -6.69512e+01  8.84925e+00 -4.26278e+01
       E  2.10421e+01 -2.70122e+01  3.40361e+01
3
# CELL(abcABC): 1322.94304  1322.94304  1322.94304    90.00000    90.00000    90.00000  Step:        4700  Bead:      12 positions{angstrom}  cell{angstrom}
       E  4.82032e+01  4.22981e+01 -3.00972e+01
       E -8.12952e+01  3.80069e+01 -6.72192e+01
       E  5.43233e+01  1.00213e+01 -1.73694e-01
3
# CELL(abcABC): 1322.94304  1322.94304  1322.94304    90.00000    90.00000    90.00000  Step:        4800  Bead:      12 positions{angstrom}  cell{angstrom}
       E  5.16104e+00  5.81950e+01  6.38540e+00
       E -5.68646e+01  2.76018e+01 -5.56144e+01
       E  4.71516e+01  2.47382e+01 -1.86079e+01
3
# CELL(abcABC): 1322.94304  1322.94304  1322.94304    90.00000    90.00000    90.00000  Step:        4900  Bead:      12 positions{angstrom}  cell{angstrom}
       E  1.72071e+01  7.33553e-01  1.54817e+01
       E -2.09830e+01 -1.59331e+01 -5.39811e+01
       E  1.54612e+01  3.62610e+00 -1.51600e+01
3
# CELL(abcABC): 1322.94304  1322.94304  1322.94304    90.00000    90.00000    90.00000  Step:        5000  Bead:      12 positions{angstrom}  cell{angstrom}
       E -1.15792e+01 -1.54128e+01  9.78336e+00
       E -1.77354e+01  2.91562e+01 -3.33802e+01
       E  5.80693e+00 -1.85100e+01 -2.32427e+01
3
# CELL(abcABC): 1322.94304  1322.94304  1322.94304    90.00000    90.00000    90.00000  Step:        5100  Bead:      12 positions{angstrom}  cell{angstrom}
       E -3.42927e+01 -2.14737e+01  6.55026e+00
       E  1.88196e+01  2.93664e+01 -2.08819e+01
       E -1.48649e+01 -1.98173e+01  2.17417e+00
3
# CELL(abcABC): 1322.94304  1322.94304  1322.94304    90.00000    90.00000    90.00000  Step:        5200  Bead:      12 positions{angstrom}  cell{angstrom}
       E -2.44522e+01 -7.49515e+00  4.71839e+01
       E  2.28189e+01  6.59149e+01 -6.86512e+00
       E  5.90792e+00 -1.21986e+01  1.16151e+01
3
# CELL(abcABC): 1322.94304  1322.94304  1322.94304    90.00000    90.00000    90.00000  Step:        5300  Bead:      12 positions{angstrom}  cell{angstrom}
       E -2.02021e+01  2.41071e+01  3.48831e+01
       E  2.59665e+00  5.27988e+01 -4.21115e+01
       E  9.45671e+00  1.20946e+01  3.83664e+01
3
# CELL(abcABC): 1322.94304  1322.94304  1322.94304    90.00000    90.00000    90.00000  Step:        5400  Bead:      12 positions{angstrom}  cell{angstrom}
       E -6.12065e+00  1.11976e+01  5.65296e+01
       E  6.75596e+00  3.80429e+01 -3.79631e+01
       E -3.21054e+01  3.31885e+01  4.00858e+01
3
# CELL(abcABC): 1322.94304  1322.94304  1322.94304    90.00000    90.00000    90.00000  Step:        5500  Bead:      12 positions{angstrom}  cell{angstrom}
       E  1.52787e+00  2.25976e+01  5.58682e+01
       E -1.77145e+01 -1.09622e+00 -2.64346e+01
       E -3.12715e+01 -5.01503e+00  4.57563e+01
3
# CELL(abcABC): 1322.94304  1322.94304  1322.94304    90.00000    90.00000    90.00000  Step:        5600  Bead:      12 positions{angstrom}  cell{angstrom}
       E -3.84255e+01  4.76681e+00  3.21285e+01
       E -3.13224e+01  1.81694e+01 -4.04303e+01
       E -5.52817e+01 -6.66936e+00 -1.00413e+01
3
# CELL(abcABC): 1322.94304  1322.94304  1322.94304    90.00000    90.00000    90.00000  Step:        5700  Bead:      12 positions{angstrom}  cell{angstrom}
       E -6.43316e+00 -5.01112e+00  2.17621e+01
       E -3.14247e+01  3.65819e+01 -9.85425e+00
       E -1.21249e+01  3.11877e+00  1.86771e+01
3
# CELL(abcABC): 1322.94304  1322.94304  1322.94304    90.00000    90.00000    90.00000  Step:        5800  Bead:      12 positions{angstrom}  cell{angstrom}
       E -3.55578e+00 -2.91263e+00 -7.08587e+00
       E -6.43697e+01  4.88156e+01  6.98349e+00
       E  4.86704e+00  3.93459e+01 -8.03154e+00
3
# CELL(abcABC): 1322.94304  1322.94304  1322.94304    90.00000    90.00000    90.00000  Step:        5900  Bead:      12 positions{angstrom}  cell{angstrom}
       E  3.35698e+01 -1.81569e+01 -6.53875e+00
       E -2.01510e+01 -7.23871e+00 -1.39555e+01
       E  1.74244e+01  9.73090e+00  1.72380e+01
3
# CELL(abcABC): 1322.94304  1322.94304  1322.94304    90.00000    90.00000    90.00000  Step:        6000  Bead:      12 positions{angstrom}  cell{angstrom}
       E  1.05721e+01 -2.34488e+01 -5.26359e+00
       E  1.43062e+01 -9.98122e+00  1.22756e+01
       E  3.04207e+00  3.23982e+01 -5.89225e+00
3
# CELL(abcABC): 1322.94304  1322.94304  1322.94304    90.00000    90.00000    90.00000  Step:        6100  Bead:      12 positions{angstrom}  cell{angstrom}
       E  3.89963e+00 -8.11043e+01 -3.81539e+01
       E  2.98024e+00  1.75873e+01  2.50757e+01
       E -2.91643e+01  2.40713e+01 -7.61251e+00
3
# CELL(abcABC): 1322.94304  1322.94304  1322.94304    90.00000    90.00000    90.00000  Step:        6200  Bead:      12 positions{angstrom}  cell{angstrom}
       E  9.27051e+00 -3.20450e+01 -4.85066e+01
       E  6.64111e+01  5.09935e+01 -4.88456e+00
       E  2.43685e+01  3.14624e+01 -1.15315e+01
3
# CELL(abcABC): 1322.94304  1322.94304  1322.94304    90.00000    90.00000    90.00000  Step:        6300  Bead:      12 positions{angstrom}  cell{angstrom}
       E  1.55700e+01 -5.00508e+01 -6.53894e+01
       E  8.94140e+01 -8.57513e+00 -4.64584e+01
       E  1.28624e+01  4.66611e+00 -3.13985e+01
3
# CELL(abcABC): 1322.94304  1322.94304  1322.94304    90.00000    90.00000    90.00000  Step:        6400  Bead:      12 positions{angstrom}  cell{angstrom}
       E  2.26715e+01 -8.42905e+01 -6.90534e+01
       E  7.84581e+01 -4.52140e+00 -1.86848e+01
       E  2.03168e+01  1.10312e+01 -2.14229e+01
3
# CELL(abcABC): 1322.94304  1322.94304  1322.94304    90.00000    90.00000    90.00000  Step:        6500  Bead:      12 positions{angstrom}  cell{angstrom}
       E -1.01457e+01 -8.51575e+01 -9.80031e+01
       E  1.76720e+01 -3.03423e+01  1.88330e+00
       E  2.63171e+01 -2.18314e+01 -1.03527e+01
3
# CELL(abcABC): 1322.94304  1322.94304  1322.94304    90.00000    90.00000    90.00000  Step:        6600  Bead:      12 positions{angstrom}  cell{angstrom}
       E -3.22845e+01 -6.30820e+01 -9.54471e+01
       E  2.61008e+01 -4.00433e+01  6.23379e+00
       E  2.38220e+01 -2.61804e+01  1.54353e+00
3
# CELL(abcABC): 1322.94304  1322.94304  1322.94304    90.00000    90.00000    90.00000  Step:        6700  Bead:      12 positions{angstrom}  cell{angstrom}
       E -2.18790e+01 -5.92198e+01 -7.72464e+01
       E  1.04290e+01 -1.59849e+01  3.98925e+00
       E  6.95482e+00  1.22084e+01 -2.23682e+01
3
# CELL(abcABC): 1322.94304  1322.94304  1322.94304    90.00000    90.00000    90.00000  Step:        6800  Bead:      12 positions{angstrom}  cell{angstrom}
       E -1.30094e+01 -8.16847e+01 -5.52977e+01
       E  4.66279e+01 -3.44316e+01  1.63994e+01
       E  3.30936e+01  5.20801e+01 -4.66324e+01
3
# CELL(abcABC): 1322.94304  1322.94304  1322.94304    90.00000    90.00000    90.00000  Step:        6900  Bead:      12 positions{angstrom}  cell{angstrom}
       E  1.41014e+01 -4.75382e+01 -4.50753e+01
       E  4.90187e+00 -1.82639e+01 -1.09623e+01
       E  6.25532e+00  4.07074e+01 -3.60341e+01
3
# CELL(abcABC): 1322.94304  1322.94304  1322.94304    90.00000    90.00000    90.00000  Step:        7000  Bead:      12 positions{angstrom}  cell{angstrom}
       E  4.26264e+00 -6.13847e+01 -3.10493e+01
       E -1.20789e+01 -2.17190e+01  4.83449e+01
       E  4.11958e+00  3.80169e+01  2.08517e+01
3
# CELL(abcABC): 1322.94304  1322.94304  1322.94304    90.00000    90.00000    90.00000  Step:        7100  Bead:      12 positions{angstrom}  cell{angstrom}
       E  5.03244e+00 -5.83422e+01 -2.38265e+01
       E -1.73435e+01 -2.29157e+01  4.06261e+01
       E  1.18001e+01  8.05833e+01  1.97325e+01
3
# CELL(abcABC): 1322.94304  1322.94304  1322.94304    90.00000    90.00000    90.00000  Step:        7200  Bead:      12 positions{angstrom}  cell{angstrom}
       E  3.43295e+01 -4.03129e+01 -1.22334e+01
       E -3.63956e+01 -4.15932e+00  2.81163e+01
       E  3.71137e+01  4.79433e+01  2.10163e+00
3
# CELL(abcABC): 1322.94304  1322.94304  1322.94304    90.00000    90.00000    90.00000  Step:        7300  Bead:      12 positions{angstrom}  cell{angstrom}
       E  3.63817e+00 -3.51851e+01 -4.41113e+01
       E -9.32023e+00  4.88271e+01  2.39403e+01
       E  2.32126e+01  2.81484e+01 -9.42943e+00
3
# CELL(abcABC): 1322.94304  1322.94304  1322.94304    90.00000    90.00000    90.00000  Step:        7400  Bead:      12 positions{angstrom}  cell{angstrom}
       E  9.12544e+00 -4.00973e+01 -6.70248e+01
       E -1.79417e+01  3.18736e+01 -1.38837e+01
       E  2.58154e+01  5.13237e+01 -3.21849e+01
3
# CELL(abcABC): 1322.94304  1322.94304  1322.94304    90.00000    90.00000    90.00000  Step:        7500  Bead:      12 positions{angstrom}  cell{angstrom}
       E -1.81378e+01 -6.54104e+01 -3.07319e+01
       E -2.34594e-01  1.04128e+00 -2.36421e+01
       E  2.94156e+01  3.96176e+01  1.17998e+01
3
# CELL(abcABC): 1322.94304  1322.94304  1322.94304    90.00000    90.00000    90.00000  Step:        7600  Bead:      12 positions{angstrom}  cell{angstrom}
       E  1.32323e+01 -4.92297e+01 -2.41393e+01
       E  2.73193e+01 -4.04349e+01 -4.55439e+01
       E  9.71643e+00  2.83599e+01  1.83048e+01
3
# CELL(abcABC): 1322.94304  1322.94304  1322.94304    90.00000    90.00000    90.00000  Step:        7700  Bead:      12 positions{angstrom}  cell{angstrom}
       E  1.63435e+01 -5.56671e+01 -1.03738e+01
       E  1.35005e+01 -4.86855e+01 -7.92474e+01
       E -5.45560e+00  9.88206e+00 -3.67146e+01
3
# CELL(abcABC): 1322.94304  1322.94304  1322.94304    90.00000    90.00000    90.00000  Step:        7800  Bead:      12 positions{angstrom}  cell{angstrom}
       E  2.69074e+01 -4.04181e+01 -3.34147e+01
       E  9.75989e+00 -4.69313e+01 -4.30707e+01
       E  1.43201e+00 -2.91177e+01 -4.50731e+01
3
# CELL(abcABC): 1322.94304  1322.94304  1322.94304    90.00000    90.00000    90.00000  Step:        7900  Bead:      12 positions{angstrom}  cell{angstrom}
       E  5.50867e+01 -7.42658e+00 -3.44581e+01
       E  3.58156e+00  1.07433e+01 -3.79883e+01
       E -2.73491e+01  1.00679e+01 -5.22041e+01
3
# CELL(abcABC): 1322.94304  1322.94304  1322.94304    90.00000    90.00000    90.00000  Step:        8000  Bead:      12 positions{angstrom}  cell{angstrom}
       E  3.03059e+01 -1.61368e+01 -3.69331e+01
       E  1.45992e+01  2.37661e+01 -3.31026e+01
       E -1.51179e+01  1.64792e+01 -4.10502e+01
3
# CELL(abcABC): 1322.94304  1322.94304  1322.94304    90.00000    90.00000    90.00000  Step:        8100  Bead:      12 positions{angstrom}  cell{angstrom}
       E  4.48386e+01  3.08689e+00 -6.90283e+01
       E  1.40299e+01  1.54721e+01 -1.55454e+01
       E  1.41522e+01  7.67524e+00 -6.56525e+00
3
# CELL(abcABC): 1322.94304  1322.94304  1322.94304    90.00000    90.00000    90.00000  Step:        8200  Bead:      12 positions{angstrom}  cell{angstrom}
       E  5.46942e+01  4.28781e+01 -7.53572e+01
       E -3.31022e+01  9.83590e+00 -1.39897e+01
       E -1.90571e+01 -1.82843e+01  2.37350e+01
3
# CELL(abcABC): 1322.94304  1322.94304  1322.94304    90.00000    90.00000    90.00000  Step:        8300  Bead:      12 positions{angstrom}  cell{angstrom}
       E  4.41715e+01  3.29495e+01 -6.25842e+01
       E -1.37129e+01  3.62089e+01  3.56857e+01
       E -5.84110e+00 -6.76776e+01  5.82370e+01
3
# CELL(abcABC): 1322.94304  1322.94304  1322.94304    90.00000    90.00000    90.00000  Step:        8400  Bead:      12 positions{angstrom}  cell{angstrom}
       E  1.95799e+01  3.05431e+00 -4.49086e+01
       E  2.02689e+01  5.09521e+01 -7.01302e+00
       E  1.34537e+01 -4.70982e+01  4.80780e+01
3
# CELL(abcABC): 1322.94304  1322.94304  1322.94304    90.00000    90.00000    90.00000  Step:        8500  Bead:      12 positions{angstrom}  cell{angstrom}
       E -4.05819e+01 -2.13976e+01 -2.69785e+01
       E  4.35753e+01  4.31416e+01 -6.05034e+00
       E  6.84686e+00 -3.75172e+01  3.63714e+01
3
# CELL(abcABC): 1322.94304  1322.94304  1322.94304    90.00000    90.00000    90.00000  Step:        8600  Bead:      12 positions{angstrom}  cell{angstrom}
       E -2.64938e+01 -1.14399e+01 -6.08275e+00
       E  1.15944e+01  3.32761e+01 -4.98151e+01
       E  3.25175e+00 -1.83093e+01  3.46306e+01
3
# CELL(abcABC): 1322.94304  1322.94304  1322.94304    90.00000    90.00000    90.00000  Step:        8700  Bead:      12 positions{angstrom}  cell{angstrom}
       E -4.16033e+01  8.67449e+00 -3.21776e+01
       E -9.25671e+00  2.61038e+01 -2.30164e+01
       E  8.30672e+00 -3.93382e+01  7.53482e+01
3
# CELL(abcABC): 1322.94304  1322.94304  1322.94304    90.00000    90.00000    90.00000  Step:        8800  Bead:      12 positions{angstrom}  cell{angstrom}
       E -3.84371e+01  2.00220e+01  1.71234e+01
       E  1.75978e+01  3.19270e-01  1.17255e+01
       E  5.61363e+00 -9.00375e+01  6.80967e+01
3
# CELL(abcABC): 1322.94304  1322.94304  1322.94304    90.00000    90.00000    90.00000  Step:        8900  Bead:      12 positions{angstrom}  cell{angstrom}
       E -3.36105e+01  2.18627e+01  2.14029e+01
       E  1.08346e+01 -1.71583e+01  3.23652e+01
       E -3.49975e+00 -5.48253e+01  5.01509e+01
3
# CELL(abcABC): 1322.94304  1322.94304  1322.94304    90.00000    90.00000    90.00000  Step:        9000  Bead:      12 positions{angstrom}  cell{angstrom}
       E -8.00827e+00  2.49240e+01  1.49173e+01
       E -1.39344e+01 -1.61795e+01  5.47185e+01
       E  3.31188e+01 -3.34119e+01  6.92423e+00
3
# CELL(abcABC): 1322.94304  1322.94304  1322.94304    90.00000    90.00000    90.00000  Step:        9100  Bead:      12 positions{angstrom}  cell{angstrom}
       E  4.87241e+00  2.51805e+01  1.08362e+01
       E -3.34929e+01  1.74737e+01  7.07791e+01
       E  1.82718e+01 -1.89047e+01  2.97140e+01
3
# CELL(abcABC): 1322.94304  1322.94304  1322.94304    90.00000    90.00000    90.00000  Step:        9200  Bead:      12 positions{angstrom}  cell{angstrom}
       E  6.21420e+00  2.58969e+01  6.54754e+00
       E -4.72919e+01 -1.25073e+01  3.86382e+01
       E  1.96923e+01 -7.06933e+01 -2.32009e+00
3
# CELL(abcABC): 1322.94304  1322.94304  1322.94304    90.00000    90.00000    90.00000  Step:        9300  Bead:      12 positions{angstrom}  cell{angstrom}
       E  2.30555e+00  2.89613e+01 -6.83987e+00
       E -2.64619e+01  9.36006e+00  1.01503e+01
       E  3.16602e+01 -6.54109e+01  1.98737e+01
3
# CELL(abcABC): 1322.94304  1322.94304  1322.94304    90.00000    90.00000    90.00000  Step:        9400  Bead:      12 positions{angstrom}  cell{angstrom}
       E  2.87395e+01  7.89246e+01 -6.40182e+01
       E -3.07899e+01 -5.10297e+01  2.49393e+01
       E  5.37556e+01 -6.55441e+01 -2.31031e+01
3
# CELL(abcABC): 1322.94304  1322.94304  1322.94304    90.00000    90.00000    90.00000  Step:        9500  Bead:      12 positions{angstrom}  cell{angstrom}
       E  8.37971e+00  5.85430e+01 -5.50834e+01
       E -2.73145e+01 -4.80658e+01  3.41871e+01
       E  1.84256e+01 -2.16471e+01  4.39463e+00
3
# CELL(abcABC): 1322.94304  1322.94304  1322.94304    90.00000    90.00000    90.00000  Step:        9600  Bead:      12 positions{angstrom}  cell{angstrom}
       E  1.26394e+01  4.78953e+01 -1.79466e+01
       E  3.33126e+01 -5.04565e+01  3.35428e+01
       E  1.18548e+01 -1.67184e+01  9.06223e+00
3
# CELL(abcABC): 1322.94304  1322.94304  1322.94304    90.00000    90.00000    90.00000  Step:        9700  Bead:      12 positions{angstrom}  cell{angstrom}
       E  2.20286e+01 -2.78227e+01 -2.99365e+01
       E  7.12050e+01 -5.50748e+01  2.03052e+01
       E  2.56378e+01 -5.51127e+00  6.55090e+00
3
# CELL(abcABC): 1322.94304  1322.94304  1322.94304    90.00000    90.00000    90.00000  Step:        9800  Bead:      12 positions{angstrom}  cell{angstrom}
       E  7.20744e+00 -6.08408e+01 -6.39814e+01
       E  4.18284e+01 -8.74760e+01 -5.29548e-01
       E  2.59987e+01 -7.05796e+00  1.98191e+01
3