3
# CELL(abcABC): 1322.94304  1322.94304  1322.94304    90.00000    90.00000    90.00000  Step:           0  Bead:      25 positions{angstrom}  cell{angstrom}
       E  0.00000e+00  0.00000e+00  0.00000e+00
       E  0.00000e+00  0.00000e+00  0.00000e+00
       E  0.00000e+00  0.00000e+00  0.00000e+00
3
# CELL(abcABC): 1322.94304  1322.94304  1322.94304    90.00000    90.00000    90.00000  Step:         100  Bead:      25 positions{angstrom}  cell{angstrom}
       E  2.67989e+01 -2.68745e+01  1.29938e+01
       E  6.39324e+00 -5.38206e+01  2.38668e+01
       E  2.65378e+00  3.25318e+00 -6.07915e+00
3
# CELL(abcABC): 1322.94304  1322.94304  1322.94304    90.00000    90.00000    90.00000  Step:         200  Bead:      25 positions{angstrom}  cell{angstrom}
       E -1.54403e+01 -4.06095e+00  3.84851e+01
       E -1.93439e+01 -7.99346e+01  1.28536e+01
       E  3.53048e+01  3.15810e+01  4.42010e+00
3
# CELL(abcABC): 1322.94304  1322.94304  1322.94304    90.00000    90.00000    90.00000  Step:         300  Bead:      25 positions{angstrom}  cell{angstrom}
       E  1.61964e+01 -1.73232e+01  1.53814e+01
       E -1.49568e+01 -2.70498e+01  2.70693e+00
       E  3.09135e+01  6.46392e+00  5.89218e+00
3
# CELL(abcABC): 1322.94304  1322.94304  1322.94304    90.00000    90.00000    90.00000  Step:         400  Bead:      25 positions{angstrom}  cell{angstrom}
       E  1.62476e+01  1.29398e+01 -6.46685e+00
       E -1.20918e+01 -2.69446e+01 -1.47498e+01
       E  4.28636e+01  3.79244e+00 -5.18344e+00
3
# CELL(abcABC): 1322.94304  1322.94304  1322.94304    90.00000    90.00000    90.00000  Step:         500  Bead:      25 positions{angstrom}  cell{angstrom}
       E  5.02334e+01 -1.55304e+01 -3.19715e+01
       E -2.85116e+01  1.44902e+01  3.09294e+01
       E  4.52735e+01 -4.73033e+00 -1.21093e+00
3
# CELL(abcABC): 1322.94304  1322.94304  1322.94304    90.00000    90.00000    90.00000  Step:         600  Bead:      25 positions{angstrom}  cell{angstrom}
       E  3.32254e+01 -6.92595e+00 -4.18389e+00
       E -1.04757e+01 -1.39787e+01  4.43076e+01
       E  4.76986e+01  2.97161e+01  2.41780e+01
3
# CELL(abcABC): 1322.94304  1322.94304  1322.94304    90.00000    90.00000    90.00000  Step:         700  Bead:      25 positions{angstrom}  cell{angstrom}
       E  3.33480e+01 -7.33965e+00 -6.51957e+00
       E -5.25660e-01 -1.83571e+01  3.78212e+01
       E -1.88910e+01  1.99857e+01  3.10213e+01
3
# CELL(abcABC): 1322.94304  1322.94304  1322.94304    90.00000    90.00000    90.00000  Step:         800  Bead:      25 positions{angstrom}  cell{angstrom}
       E  3.93896e+01  2.34810e+00  1.09999e+01
       E  2.16487e+01  1.37459e+01  2.73799e+01
       E -2.48723e+01  2.83444e+01  2.16494e+01
3
# CELL(abcABC): 1322.94304  1322.94304  1322.94304    90.00000    90.00000    90.00000  Step:         900  Bead:      25 positions{angstrom}  cell{angstrom}
       E  4.99912e+00  2.21599e+01 -1.92763e+01
       E -3.52134e+01  8.32650e+00  3.09349e+01
       E -2.37271e+01  2.10348e+00  6.98799e+01
3
# CELL(abcABC): 1322.94304  1322.94304  1322.94304    90.00000    90.00000    90.00000  Step:        1000  Bead:      25 positions{angstrom}  cell{angstrom}
       E  9.38079e+00  2.16458e+01 -2.12907e+01
       E -2.49153e+01  5.62883e+01  2.69703e+01
       E  1.70078e+01  2.04883e+01  1.62261e+01
3
# CELL(abcABC): 1322.94304  1322.94304  1322.94304    90.00000    90.00000    90.00000  Step:        1100  Bead:      25 positions{angstrom}  cell{angstrom}
       E -8.19748e+00  1.05421e+01 -1.75336e+01
       E -3.37483e+01  4.10858e+01  6.37317e+00
       E  4.00415e+01 -2.48960e+00 -6.77667e+00
3
# CELL(abcABC): 1322.94304  1322.94304  1322.94304    90.00000    90.00000    90.00000  Step:        1200  Bead:      25 positions{angstrom}  cell{angstrom}
       E  3.54903e-01 -1.74310e+01 -1.76378e+01
       E -1.11860e+01  4.14556e+01  2.18676e+00
       E  3.35795e+01  7.99599e+01 -1.95102e+01
3
# CELL(abcABC): 1322.94304  1322.94304  1322.94304    90.00000    90.00000    90.00000  Step:        1300  Bead:      25 positions{angstrom}  cell{angstrom}
       E  6.30513e+00  7.01249e+00 -3.40360e+01
       E -6.83516e+00  2.25561e+01 -4.85839e+01
       E  1.51107e+01  3.05721e+01 -2.78311e+01
3
# CELL(abcABC): 1322.94304  1322.94304  1322.94304    90.00000    90.00000    90.00000  Step:        1400  Bead:      25 positions{angstrom}  cell{angstrom}
       E -2.06405e+01  4.03977e+01 -4.30406e+01
       E -3.80352e+01  2.09777e+01 -1.77853e+01
       E  1.50889e+01 -1.14650e+01 -2.23631e+01
3
# CELL(abcABC): 1322.94304  1322.94304  1322.94304    90.00000    90.00000    90.00000  Step:        1500  Bead:      25 positions{angstrom}  cell{angstrom}
       E  6.35724e+00  4.07810e+01 -6.60934e+01
       E -4.75540e+01  4.03700e+01 -1.09859e+01
       E  3.49174e+01 -8.31645e+00  4.63495e+00
3
# CELL(abcABC): 1322.94304  1322.94304  1322.94304    90.00000    90.00000    90.00000  Step:        1600  Bead:      25 positions{angstrom}  cell{angstrom}
       E -2.78785e+01  2.21534e+01 -6.29164e+01
       E -4.65669e+01  4.63004e+01  5.70364e+01
       E  8.61507e+00  1.56358e+01 -2.50929e+00
3
# CELL(abcABC): 1322.94304  1322.94304  1322.94304    90.00000    90.00000    90.00000  Step:        1700  Bead:      25 positions{angstrom}  cell{angstrom}
       E -3.54128e+01  2.64193e+01 -3.85499e+00
       E -3.61317e+01  7.93393e+01  4.71286e+01
       E  4.83910e+00 -1.35061e+01 -2.63708e+01
3
# CELL(abcABC): 1322.94304  1322.94304  1322.94304    90.00000    90.00000    90.00000  Step:        1800  Bead:      25 positions{angstrom}  cell{angstrom}
       E -1.30080e+01  2.45531e+01  3.78638e+01
       E -6.37604e+01  6.09035e+01 -3.00809e+00
       E -2.16000e+01  4.89560e+00 -5.19879e+00
3
# CELL(abcABC): 1322.94304  1322.94304  1322.94304    90.00000    90.00000    90.00000  Step:        1900  Bead:      25 positions{angstrom}  cell{angstrom}
       E -9.71334e-02  4.17836e+00  3.57554e+01
       E -5.78201e+01  9.02199e+01 -1.27598e+01
       E -2.18563e+01 -1.21505e+01  8.14809e+00
3
# CELL(abcABC): 1322.94304  1322.94304  1322.94304    90.00000    90.00000    90.00000  Step:        2000  Bead:      25 positions{angstrom}  cell{angstrom}
       E -2.63770e+01 -3.14407e+01  6.51215e+01
       E -3.85635e+01  6.68507e+01  1.78484e+00
       E -6.06985e+01  1.34583e+01 -1.06363e+01
3
# CELL(abcABC): 1322.94304  1322.94304  1322.94304    90.00000    90.00000    90.00000  Step:        2100  Bead:      25 positions{angstrom}  cell{angstrom}
       E -7.78149e+00 -5.43418e+01  2.96851e+01
       E -1.56843e+01  3.68776e+01  2.48108e+01
       E -2.87627e+01  5.72792e+01  5.28334e+00
3
# CELL(abcABC): 1322.94304  1322.94304  1322.94304    90.00000    90.00000    90.00000  Step:        2200  Bead:      25 positions{angstrom}  cell{angstrom}
       E -2.16890e+01 -4.54849e+01  5.93934e+00
       E -1.49920e+01  3.92266e+01  2.55011e+00
       E -1.75275e+01 -2.03485e+00 -1.04715e-01
3
# CELL(abcABC): 1322.94304  1322.94304  1322.94304    90.00000    90.00000    90.00000  Step:        2300  Bead:      25 positions{angstrom}  cell{angstrom}
       E -2.71455e+01 -7.86040e+01 -1.40194e+01
       E -4.46243e+01  5.46358e+01  1.96675e+00
       E -3.02601e+01 -1.48076e+01 -3.11857e+01
3
# CELL(abcABC): 1322.94304  1322.94304  1322.94304    90.00000    90.00000    90.00000  Step:        2400  Bead:      25 positions{angstrom}  cell{angstrom}
       E -3.03066e+01 -7.61317e+01  1.16896e+01
       E -4.41844e+01  1.37739e+01 -3.00195e+00
       E  5.62535e+00 -3.72960e+01 -4.56152e+01
3
# CELL(abcABC): 1322.94304  1322.94304  1322.94304    90.00000    90.00000    90.00000  Step:        2500  Bead:      25 positions{angstrom}  cell{angstrom}
       E -3.09753e+01  1.51633e+01  1.77621e+01
       E -2.61294e+01 -2.74789e+01 -2.81685e+00
       E  1.62367e+01 -3.81512e+01  4.08416e+00
3
# CELL(abcABC): 1322.94304  1322.94304  1322.94304    90.00000    90.00000    90.00000  Step:        2600  Bead:      25 positions{angstrom}  cell{angstrom}
       E -5.27045e+01 -2.40336e+01  4.99747e+01
       E -8.17492e+01 -2.80414e+01  1.85826e+01
       E  3.20775e+01 -4.91351e+01  4.40711e+01
3
# CELL(abcABC): 1322.94304  1322.94304  1322.94304    90.00000    90.00000    90.00000  Step:        2700  Bead:      25 positions{angstrom}  cell{angstrom}
       E -6.20921e+01 -4.34920e+01  7.98192e+01
       E -2.35802e+01 -2.60738e+01  8.92020e-01
       E -3.57816e+00 -5.03153e+01  6.42175e+01
3
# CELL(abcABC): 1322.94304  1322.94304  1322.94304    90.00000    90.00000    90.00000  Step:        2800  Bead:      25 positions{angstrom}  cell{angstrom}
       E -5.01507e+01 -4.73368e+01  9.34299e+01
       E -6.03137e+01 -3.65283e+01  1.38958e+01
       E  3.30714e+01 -3.50468e+01  2.68285e+01
3
# CELL(abcABC): 1322.94304  1322.94304  1322.94304    90.00000    90.00000    90.00000  Step:        2900  Bead:      25 positions{angstrom}  cell{angstrom}
       E -7.37405e+01 -5.64089e+01  7.73741e+01
       E -5.41974e+01 -1.76291e+01  4.84813e+01
       E  3.89901e+01 -4.75669e+01  1.95018e+01
3
# CELL(abcABC): 1322.94304  1322.94304  1322.94304    90.00000    90.00000    90.00000  Step:        3000  Bead:      25 positions{angstrom}  cell{angstrom}
       E -8.30719e+01 -4.80727e+01  5.64677e+01
       E -6.34267e+01 -4.91494e+01  4.94624e+01
       E  9.93961e+00 -8.40245e-01 -3.46535e+01
3
# CELL(abcABC): 1322.94304  1322.94304  1322.94304    90.00000    90.00000    90.00000  Step:        3100  Bead:      25 positions{angstrom}  cell{angstrom}
       E -8.10488e+01 -3.78906e+01  4.35097e+01
       E -6.17431e+01 -3.90696e+01  7.99115e+01
       E  6.53209e+01  3.17404e+01 -1.71413e+01
3
# CELL(abcABC): 1322.94304  1322.94304  1322.94304    90.00000    90.00000    90.00000  Step:        3200  Bead:      25 positions{angstrom}  cell{angstrom}
       E -7.92380e+01 -4.83292e+01  4.18309e+01
       E -4.17835e+01  3.19879e+01  9.24183e+01
       E  4.21410e+01  1.36132e+01 -6.35195e-01
3
# CELL(abcABC): 1322.94304  1322.94304  1322.94304    90.00000    90.00000    90.00000  Step:        3300  Bead:      25 positions{angstrom}  cell{angstrom}
       E -6.21631e+01 -1.27217e+01  6.35334e+01
       E -6.48815e+01  7.53009e+01  7.31418e+01
       E  3.34295e+01  2.78578e+01 -2.28809e+00
3
# CELL(abcABC): 1322.94304  1322.94304  1322.94304    90.00000    90.00000    90.00000  Step:        3400  Bead:      25 positions{angstrom}  cell{angstrom}
       E -1.08848e+02  2.41775e+01  8.89742e+01
       E -3.09970e+01  2.84128e+01  3.77089e+01
       E  1.51330e+01  2.94219e+01  4.80631e+01
3
# CELL(abcABC): 1322.94304  1322.94304  1322.94304    90.00000    90.00000    90.00000  Step:        3500  Bead:      25 positions{angstrom}  cell{angstrom}
       E -9.81428e+01  9.92490e+00  8.83596e+01
       E -1.53061e+01  3.02227e+01  3.64351e+01
       E  2.62913e+01  3.65132e-01  1.88524e+01
3
# CELL(abcABC): 1322.94304  1322.94304  1322.94304    90.00000    90.00000    90.00000  Step:        3600  Bead:      25 positions{angstrom}  cell{angstrom}
       E -1.08722e+02 -4.59746e+01  4.24996e+01
       E -1.70150e+01  1.21542e+01  6.95835e+01
       E -5.46866e+01 -1.51143e+01  1.67745e+01
3
# CELL(abcABC): 1322.94304  1322.94304  1322.94304    90.00000    90.00000    90.00000  Step:        3700  Bead:      25 positions{angstrom}  cell{angstrom}
       E -9.18847e+01 -2.04739e+01  9.94003e+00
       E  3.75529e+00 -9.65728e-01  3.53971e+01
       E -5.13333e+01 -2.62027e+01  5.63810e+00
3
# CELL(abcABC): 1322.94304  1322.94304  1322.94304    90.00000    90.00000    90.00000  Step:        3800  Bead:      25 positions{angstrom}  cell{angstrom}
       E -7.12238e+01 -5.72133e+00  6.56014e+00
       E -2.42949e+01 -2.78505e+00  2.71666e+01
       E -1.05449e+01 -6.88766e+01 -1.10521e+01
3
# CELL(abcABC): 1322.94304  1322.94304  1322.94304    90.00000    90.00000    90.00000  Step:        3900  Bead:      25 positions{angstrom}  cell{angstrom}
       E -4.06323e+01  1.03651e+01 -1.41670e+01
       E -1.95873e+01 -1.33316e+01  6.25246e+01
       E  5.39434e-01 -3.82264e+01 -4.07918e+00
3
# CELL(abcABC): 1322.94304  1322.94304  1322.94304    90.00000    90.00000    90.00000  Step:        4000  Bead:      25 positions{angstrom}  cell{angstrom}
       E -5.69529e+01  9.61720e-01 -4.97902e+01
       E -5.53990e+01  6.69132e+00  3.53670e+01
       E -4.15058e+01 -1.22339e+01 -2.31340e+01
3
# CELL(abcABC): 1322.94304  1322.94304  1322.94304    90.00000    90.00000    90.00000  Step:        4100  Bead:      25 positions{angstrom}  cell{angstrom}
       E -6.16756e+01 -4.80429e+00 -8.42935e+01
       E -7.10578e+01  3.13033e+01  4.55695e+00
       E -3.08086e+01 -2.86931e+00  5.83915e+00
3
# CELL(abcABC): 1322.94304  1322.94304  1322.94304    90.00000    90.00000    90.00000  Step:        4200  Bead:      25 positions{angstrom}  cell{angstrom}
       E -6.55171e+01 -3.82066e+01 -1.25612e+02
       E -7.33754e+01  2.60629e+01 -3.23552e+01
       E  2.05191e+01  1.48557e+01 -4.11244e+00
3
# CELL(abcABC): 1322.94304  1322.94304  1322.94304    90.00000    90.00000    90.00000  Step:        4300  Bead:      25 positions{angstrom}  cell{angstrom}
       E -4.43204e+01 -4.07817e+00 -6.64377e+01
       E -6.41024e+01  4.78591e+01 -1.55528e+01
       E  6.06019e+00  9.70358e+00  1.28768e+01
3
# CELL(abcABC): 1322.94304  1322.94304  1322.94304    90.00000    90.00000    90.00000  Step:        4400  Bead:      25 positions{angstrom}  cell{angstrom}
       E -1.88664e+01  2.29659e+01 -5.30459e+01
       E -5.58380e+01  1.83021e+01 -1.72257e+01
       E  2.75351e+01 -1.49151e+01  1.45654e+01
3
# CELL(abcABC): 1322.94304  1322.94304  1322.94304    90.00000    90.00000    90.00000  Step:        4500  Bead:      25 positions{angstrom}  cell{angstrom}
       E -6.88830e+01  1.74544e+01 -3.88169e+01
       E -2.81447e+01  1.55762e+01 -3.26244e+01
       E  2.48878e+01 -1.51049e+01  2.67535e+01
3
# CELL(abcABC): 1322.94304  1322.94304  1322.94304    90.00000    90.00000    90.00000  Step:        4600  Bead:      25 positions{angstrom}  cell{angstrom}
       E -7.01170e+01  4.84404e+01 -5.56296e+01
       E -4.75574e+01  8.25460e+00 -9.95976e+00
       E -1.27785e+01 -1.47708e+01  3.40370e+01
3
# CELL(abcABC): 1322.94304  1322.94304  1322.94304    90.00000    90.00000    90.00000  Step:        4700  Bead:      25 positions{angstrom}  cell{angstrom}
       E -3.28037e+01  5.71933e+01 -9.58114e+01
       E -3.15120e+01  1.92131e+00 -3.49659e+01
       E -3.84128e+01 -2.89578e+01  5.71855e+01
3
# CELL(abcABC): 1322.94304  1322.94304  1322.94304    90.00000    90.00000    90.00000  Step:        4800  Bead:      25 positions{angstrom}  cell{angstrom}
       E -4.30027e+01  3.99579e+01 -8.41632e+01
       E  4.12980e+00  2.64504e+00 -1.04753e+01
       E  1.37171e+01 -2.49289e+01  2.34815e+01
3
# CELL(abcABC): 1322.94304  1322.94304  1322.94304    90.00000    90.00000    90.00000  Step:        4900  Bead:      25 positions{angstrom}  cell{angstrom}
       E -2.86793e+01  3.76164e+01 -5.80006e+01
       E  6.86605e+00 -1.31683e+01 -3.01739e+01
       E -4.26707e+00 -4.39010e+01 -1.11202e+01
3
# CELL(abcABC): 1322.94304  1322.94304  1322.94304    90.00000    90.00000    90.00000  Step:        5000  Bead:      25 positions{angstrom}  cell{angstrom}
       E  1.30418e+01  5.37481e+00  2.64446e+00
       E  7.73125e+00 -7.33311e+00 -3.63691e+01
       E -8.58148e+00 -3.20238e+01  2.09120e+01
3
# CELL(abcABC): 1322.94304  1322.94304  1322.94304    90.00000    90.00000    90.00000  Step:        5100  Bead:      25 positions{angstrom}  cell{angstrom}
       E -3.55424e+01  1.90442e+01 -5.35729e+00
       E  3.21443e+01  2.15530e+01 -2.13740e+01
       E  3.20195e+01 -7.28542e+00 -1.06608e+01
3
# CELL(abcABC): 1322.94304  1322.94304  1322.94304    90.00000    90.00000    90.00000  Step:        5200  Bead:      25 positions{angstrom}  cell{angstrom}
       E -4.03064e+01 -1.40988e+01  1.10323e+01
       E  2.73059e+01  3.43685e+01 -2.27606e+01
       E  2.07605e+01  1.01004e+01  3.11487e+01
3
# CELL(abcABC): 1322.94304  1322.94304  1322.94304    90.00000    90.00000    90.00000  Step:        5300  Bead:      25 positions{angstrom}  cell{angstrom}
       E -2.61109e+01 -3.01363e+01 -3.78872e+01
       E  9.92562e+00  1.46671e+01  3.22436e+00
       E -4.68444e+01  2.97382e+01  5.04954e+01
3
# CELL(abcABC): 1322.94304  1322.94304  1322.94304    90.00000    90.00000    90.00000  Step:        5400  Bead:      25 positions{angstrom}  cell{angstrom}
       E  6.30993e+00  2.07020e+01 -3.28352e+01
       E  2.81616e+00  4.39510e+01 -1.06343e+01
       E -2.56249e+01  2.02892e+01  4.40210e+01
3
# CELL(abcABC): 1322.94304  1322.94304  1322.94304    90.00000    90.00000    90.00000  Step:        5500  Bead:      25 positions{angstrom}  cell{angstrom}
       E  5.84365e+00 -1.40277e+01 -1.14934e+01
       E  2.78582e+00  2.76142e+01  4.80437e+00
       E -1.44350e+01  3.65921e+01  2.33948e+01
3
# CELL(abcABC): 1322.94304  1322.94304  1322.94304    90.00000    90.00000    90.00000  Step:        5600  Bead:      25 positions{angstrom}  cell{angstrom}
       E -2.66512e+01 -5.48863e+00 -4.76236e+01
       E  1.17811e+01  3.85135e+01  1.14671e+01
       E -8.39047e+00  1.37397e+01  1.78162e+01
3
# CELL(abcABC): 1322.94304  1322.94304  1322.94304    90.00000    90.00000    90.00000  Step:        5700  Bead:      25 positions{angstrom}  cell{angstrom}
       E  7.23998e+00  1.51490e+01 -5.83985e+01
       E  2.20502e+01  1.87645e+01 -1.50982e+01
       E -2.24229e+01 -1.69294e+01  2.55399e+01
3
# CELL(abcABC): 1322.94304  1322.94304  1322.94304    90.00000    90.00000    90.00000  Step:        5800  Bead:      25 positions{angstrom}  cell{angstrom}
       E  9.09206e+00  1.12961e+01 -1.32454e+01
       E -1.28966e+01 -2.47402e+01  3.66950e+00
       E -7.24182e-01 -1.04237e+01 -1.55440e+01
3
# CELL(abcABC): 1322.94304  1322.94304  1322.94304    90.00000    90.00000    90.00000  Step:        5900  Bead:      25 positions{angstrom}  cell{angstrom}
       E -5.03331e+00 -2.07501e+01 -8.29939e+00
       E  2.06760e+01  2.23262e+01 -2.38513e+01
       E  6.67519e-01 -3.68448e+01  1.92181e+01
3
# CELL(abcABC): 1322.94304  1322.94304  1322.94304    90.00000    90.00000    90.00000  Step:        6000  Bead:      25 positions{angstrom}  cell{angstrom}
       E -2.01367e+01 -5.29124e+01 -2.25013e+01
       E  2.06537e+01  1.47463e+01 -5.45276e+01
       E -4.61412e+00 -3.81173e+01  2.92195e+01
3
# CELL(abcABC): 1322.94304  1322.94304  1322.94304    90.00000    90.00000    90.00000  Step:        6100  Bead:      25 positions{angstrom}  cell{angstrom}
       E -6.10183e+00 -5.45258e+01 -3.43386e+01
       E  9.47092e+01 -1.62579e+01 -6.29015e+01
       E  3.23180e+01 -7.63107e+00 -7.78927e+00
3
# CELL(abcABC): 1322.94304  1322.94304  1322.94304    90.00000    90.00000    90.00000  Step:        6200  Bead:      25 positions{angstrom}  cell{angstrom}
       E -1.53771e+01 -2.81533e+01 -5.83793e+01
       E  9.64121e+01  5.44380e+01 -8.33011e+00
       E  3.61622e+00 -6.07388e+01  3.22686e+01
3
# CELL(abcABC): 1322.94304  1322.94304  1322.94304    90.00000    90.00000    90.00000  Step:        6300  Bead:      25 positions{angstrom}  cell{angstrom}
       E  1.71146e+01 -7.77044e+01 -8.16244e+01
       E  7.90523e+01  7.40622e+00 -4.19058e+01
       E  5.06311e+01 -7.30833e+01  2.91567e+01
3
# CELL(abcABC): 1322.94304  1322.94304  1322.94304    90.00000    90.00000    90.00000  Step:        6400  Bead:      25 positions{angstrom}  cell{angstrom}
       E  7.71054e+01 -7.50907e+01 -9.57523e+01
       E  1.90429e+01  2.01753e+01 -6.18295e+01
       E  4.23153e+01 -5.50686e+01 -3.64849e+00
3
# CELL(abcABC): 1322.94304  1322.94304  1322.94304    90.00000    90.00000    90.00000  Step:        6500  Bead:      25 positions{angstrom}  cell{angstrom}
       E  3.74879e+01 -9.61989e+01 -1.14748e+02
       E -1.61239e+01  2.50093e+01 -7.27278e+01
       E  3.56374e+01 -2.59262e+01 -1.36639e+01
3
# CELL(abcABC): 1322.94304  1322.94304  1322.94304    90.00000    90.00000    90.00000  Step:        6600  Bead:      25 positions{angstrom}  cell{angstrom}
       E  1.35972e+01 -9.89426e+01 -8.56998e+01
       E  2.72255e+01  2.95961e+01 -4.54000e+01
       E  3.22685e+01  1.35744e+01 -1.20569e+00
3
# CELL(abcABC): 1322.94304  1322.94304  1322.94304    90.00000    90.00000    90.00000  Step:        6700  Bead:      25 positions{angstrom}  cell{angstrom}
       E  3.03156e+01 -1.04901e+02 -1.00594e+02
       E  2.55419e+01  1.62923e+01 -1.56080e+01
       E  1.69914e+00 -1.08328e+01  4.02624e+01
3
# CELL(abcABC): 1322.94304  1322.94304  1322.94304    90.00000    90.00000    90.00000  Step:        6800  Bead:      25 positions{angstrom}  cell{angstrom}
       E  3.43188e+01 -1.18080e+02 -9.44697e+01
       E  1.25188e+00  4.30802e+00  1.70074e+01
       E  7.16485e-01 -5.88334e+01  2.55652e+00
3
# CELL(abcABC): 1322.94304  1322.94304  1322.94304    90.00000    90.00000    90.00000  Step:        6900  Bead:      25 positions{angstrom}  cell{angstrom}
       E  3.57906e+01 -7.99058e+01 -3.30645e+01
       E  3.84261e+01  1.03184e+01 -7.41916e+00
       E  2.08503e+01 -4.63767e+01 -2.15058e+01
3
# CELL(abcABC): 1322.94304  1322.94304  1322.94304    90.00000    90.00000    90.00000  Step:        7000  Bead:      25 positions{angstrom}  cell{angstrom}
       E  4.24084e+01 -4.69064e+01 -8.00569e+00
       E  3.81757e+01  4.00467e+01 -6.74690e+00
       E  3.38690e+01 -1.38526e+01 -9.24153e+01
3
# CELL(abcABC): 1322.94304  1322.94304  1322.94304    90.00000    90.00000    90.00000  Step:        7100  Bead:      25 positions{angstrom}  cell{angstrom}
       E  8.86149e-01 -4.46476e+01 -2.99430e+01
       E  1.77924e+01  5.05961e+01  6.25688e+00
       E  4.82200e+01 -7.64646e+00 -2.50678e+01
3
# CELL(abcABC): 1322.94304  1322.94304  1322.94304    90.00000    90.00000    90.00000  Step:        7200  Bead:      25 positions{angstrom}  cell{angstrom}
       E -4.79365e+00 -3.55864e+01 -6.43906e+01
       E -3.71893e+00  6.40062e+01 -1.16289e+00
       E  2.86972e+01  1.38135e+01 -3.81961e+01
3
# CELL(abcABC): 1322.94304  1322.94304  1322.94304    90.00000    90.00000    90.00000  Step:        7300  Bead:      25 positions{angstrom}  cell{angstrom}
       E  4.51274e+01 -1.67314e+00 -5.22341e+01
       E -1.22926e+01  1.57438e+01 -3.21215e+01
       E  2.22106e+01  2.17170e+01  2.02856e+01
3
# CELL(abcABC): 1322.94304  1322.94304  1322.94304    90.00000    90.00000    90.00000  Step:        7400  Bead:      25 positions{angstrom}  cell{angstrom}
       E  9.20959e+00 -4.49392e+01 -3.94089e+01
       E  1.41043e+01 -9.64911e-02 -4.35360e+01
       E  3.32040e+01 -7.38180e-01  2.86941e+01
3
# CELL(abcABC): 1322.94304  1322.94304  1322.94304    90.00000    90.00000    90.00000  Step:        7500  Bead:      25 positions{angstrom}  cell{angstrom}
       E -1.92952e+01 -5.24844e+01 -3.14697e+01
       E  6.65122e+00 -1.27882e+01 -2.50810e+01
       E  1.26215e+01  1.84244e+01  3.93902e+01
3
# CELL(abcABC): 1322.94304  1322.94304  1322.94304    90.00000    90.00000    90.00000  Step:        7600  Bead:      25 positions{angstrom}  cell{angstrom}
       E -1.87285e+01 -7.83882e+01 -4.59659e+01
       E -5.27065e+01 -4.44145e-01  3.92529e+00
       E  1.03827e+01 -8.65727e+00 -1.92669e+01
3
# CELL(abcABC): 1322.94304  1322.94304  1322.94304    90.00000    90.00000    90.00000  Step:        7700  Bead:      25 positions{angstrom}  cell{angstrom}
       E -1.31998e+01 -3.15022e+01 -5.04152e+01
       E  2.26490e+01 -4.92673e+00 -1.71450e+01
       E  1.81600e+01 -5.24069e+01 -3.90956e+01
3
# CELL(abcABC): 1322.94304  1322.94304  1322.94304    90.00000    90.00000    90.00000  Step:        7800  Bead:      25 positions{angstrom}  cell{angstrom}
       E  2.53567e+01 -2.25974e+01 -2.19293e+01
       E  1.95952e+01  5.93702e+00 -2.61875e+01
       E  3.34357e+01 -6.84866e+01 -3.98486e+01
3
# CELL(abcABC): 1322.94304  1322.94304  1322.94304    90.00000    90.00000    90.00000  Step:        7900  Bead:      25 positions{angstrom}  cell{angstrom}
       E  6.37683e+01 -3.24375e+01 -4.56151e+01
       E  2.68734e+01 -2.47864e+01 -1.96387e+01
       E -1.68631e+01 -4.49913e+01 -6.27192e+01
3
# CELL(abcABC): 1322.94304  1322.94304  1322.94304    90.00000    90.00000    90.00000  Step:        8000  Bead:      25 positions{angstrom}  cell{angstrom}
       E  3.97341e+01 -9.28527e+00 -2.18965e+01
       E  8.43360e+00  1.31643e+01 -6.11611e+01
       E -1.56454e+01 -1.66834e+01 -5.41671e+00
3
# CELL(abcABC): 1322.94304  1322.94304  1322.94304    90.00000    90.00000    90.00000  Step:        8100  Bead:      25 positions{angstrom}  cell{angstrom}
       E  4.83661e+01  5.66205e+01 -5.03088e+01
       E -4.35322e+01  2.62717e+01 -4.92630e+01
       E -9.03086e+00 -1.51748e+01  2.02889e+01
3
# CELL(abcABC): 1322.94304  1322.94304  1322.94304    90.00000    90.00000    90.00000  Step:        8200  Bead:      25 positions{angstrom}  cell{angstrom}
       E  2.40794e+01  4.56066e+01 -1.16411e+01
       E  1.73853e+01  1.94114e+01 -1.30046e+01
       E -4.21467e+01 -5.14233e+01  2.05106e+01
3
# CELL(abcABC): 1322.94304  1322.94304  1322.94304    90.00000    90.00000    90.00000  Step:        8300  Bead:      25 positions{angstrom}  cell{angstrom}
       E -1.39904e+01  6.41317e+01  1.59307e+01
       E  3.55854e+01  1.45529e+01 -1.80220e+01
       E  3.87145e+00 -4.96797e+01  4.16117e+01
3
# CELL(abcABC): 1322.94304  1322.94304  1322.94304    90.00000    90.00000    90.00000  Step:        8400  Bead:      25 positions{angstrom}  cell{angstrom}
       E -1.80153e+01 -9.08507e+00 -1.21954e+01
       E  1.80321e+01  4.07388e+01  4.67661e+01
       E -2.17396e+01 -5.87526e+01  6.74522e+01
3
# CELL(abcABC): 1322.94304  1322.94304  1322.94304    90.00000    90.00000    90.00000  Step:        8500  Bead:      25 positions{angstrom}  cell{angstrom}
       E -2.38053e+01 -1.46821e+01 -3.00379e+01
       E  2.10014e+01  2.66104e+01  9.79961e-01
       E -3.56096e+00 -4.10811e+01  6.27658e+01
3
# CELL(abcABC): 1322.94304  1322.94304  1322.94304    90.00000    90.00000    90.00000  Step:        8600  Bead:      25 positions{angstrom}  cell{angstrom}
       E -1.08946e+01  5.89478e+00  6.65418e+00
       E  2.37018e+01  9.89669e+00  4.29842e+01
       E  6.04362e+01 -6.74566e+00  4.42836e+01
3
# CELL(abcABC): 1322.94304  1322.94304  1322.94304    90.00000    90.00000    90.00000  Step:        8700  Bead:      25 positions{angstrom}  cell{angstrom}
       E -4.51398e+00  1.31183e+00 -3.25780e+01
       E  1.76806e+01  1.89838e+01  4.74337e+01
       E  5.87216e+01 -2.04959e+01  1.97200e+01
3
# CELL(abcABC): 1322.94304  1322.94304  1322.94304    90.00000    90.00000    90.00000  Step:        8800  Bead:      25 positions{angstrom}  cell{angstrom}
       E -5.93263e+01  2.25939e+00  3.25824e+00
       E -2.06862e+01 -2.75008e+01  3.15100e+01
       E  4.13763e+01 -5.49407e+01  3.09633e+01
3
# CELL(abcABC): 1322.94304  1322.94304  1322.94304    90.00000    90.00000    90.00000  Step:        8900  Bead:      25 positions{angstrom}  cell{angstrom}
       E -4.16842e+01  3.26732e+01  5.23506e+00
       E  1.93941e+01 -2.30629e+01  1.73782e+01
       E  3.14137e+01 -5.93141e+01  8.41652e+00
3
# CELL(abcABC): 1322.94304  1322.94304  1322.94304    90.00000    90.00000    90.00000  Step:        9000  Bead:      25 positions{angstrom}  cell{angstrom}
       E -4.11243e+01  1.10921e+01  4.69105e+00
       E  1.16091e+01 -1.82295e+01  7.46907e+01
       E  1.06144e+01 -8.24862e+01  7.87634e+00
3
# CELL(abcABC): 1322.94304  1322.94304  1322.94304    90.00000    90.00000    90.00000  Step:        9100  Bead:      25 positions{angstrom}  cell{angstrom}
       E -4.81784e+01  1.64540e+01 -6.25157e+00
       E  3.60518e+00  9.83210e+00  4.02072e+01
       E  1.77941e+01 -8.04864e+01 -8.20983e+00
3
# CELL(abcABC): 1322.94304  1322.94304  1322.94304    90.00000    90.00000    90.00000  Step:        9200  Bead:      25 positions{angstrom}  cell{angstrom}
       E  1.71702e+01  3.85281e+01 -5.12278e+01
       E  1.09736e+01 -7.62211e+00  8.15883e+00
       E  4.48879e+01 -5.55504e+01  2.53659e+01
3
# CELL(abcABC): 1322.94304  1322.94304  1322.94304    90.00000    90.00000    90.00000  Step:        9300  Bead:      25 positions{angstrom}  cell{angstrom}
       E  2.96148e+01 -2.68834e+01 -7.27418e+01
       E -2.04421e+01 -3.71604e+01  3.10040e+01
       E  2.51060e+01 -1.99020e+01 -1.18615e-01
3
# CELL(abcABC): 1322.94304  1322.94304  1322.94304    90.00000    90.00000    90.00000  Step:        9400  Bead:      25 positions{angstrom}  cell{angstrom}
       E  4.65425e+01  2.04732e+01 -5.39825e+01
       E  6.09025e+00 -9.64387e+00  4.68849e+01
       E  1.52979e+01 -4.94628e-01 -2.05339e+01
3
# CELL(abcABC): 1322.94304  1322.94304  1322.94304    90.00000    90.00000    90.00000  Step:        9500  Bead:      25 positions{angstrom}  cell{angstrom}
       E  3.68104e+01  5.44115e+01 -6.22393e+01
       E  2.25628e+01 -1.91219e+01  5.82203e+01
       E  3.30038e+01 -1.29412e+01 -1.52734e+01
3
# CELL(abcABC): 1322.94304  1322.94304  1322.94304    90.00000    90.00000    90.00000  Step:        9600  Bead:      25 positions{angstrom}  cell{angstrom}
       E  1.74676e+01 -1.52650e+01 -2.75425e+01
       E  2.34377e+01 -6.31405e+01  2.76922e+00
       E  6.78405e+00 -1.20298e+01 -6.77358e+00
3
# CELL(abcABC): 1322.94304  1322.94304  1322.94304    90.00000    90.00000    90.00000  Step:        9700  Bead:      25 positions{angstrom}  cell{angstrom}
       E -2.01309e+01 -5.25727e+01 -5.67205e+01
       E  3.40622e+01 -9.70713e+01  9.69344e+00
       E -1.93421e+00  1.28877e+01 -3.39622e+00
3
# CELL(abcABC): 1322.94304  1322.94304  1322.94304    90.00000    90.00000    90.00000  Step:        9800  Bead:      25 positions{angstrom}  cell{angstrom}
       E -6.51674e+01 -4.67700e+01 -2.19411e+01
       E  4.54618e+01 -4.33993e+01  1.46258e+00
       E -1.90185e+01 -9.37961e+00  1.37502e+01
3