3
# CELL(abcABC): 1322.94304  1322.94304  1322.94304    90.00000    90.00000    90.00000  Step:           0  Bead:       0 positions{angstrom}  cell{angstrom}
       E  1.90504e+01 -4.02175e+01  3.86299e+01
       E  4.07466e+01 -5.13302e+01  1.37586e+01
       E  1.00544e+01 -1.69337e+01  4.97427e+01
3
# CELL(abcABC): 1322.94304  1322.94304  1322.94304    90.00000    90.00000    90.00000  Step:         100  Bead:       0 positions{angstrom}  cell{angstrom}
       E -2.42358e+01 -3.25628e+01  1.36986e+01
       E -1.46034e+01 -1.00191e+01 -1.96031e+01
       E  3.12091e+01  1.47952e+01  1.58643e+01
3
# CELL(abcABC): 1322.94304  1322.94304  1322.94304    90.00000    90.00000    90.00000  Step:         200  Bead:       0 positions{angstrom}  cell{angstrom}
       E -1.36462e+01 -5.27553e+00  2.78782e+01
       E  1.93095e+01  1.22466e+00  5.98810e+00
       E -8.67682e-01  3.55039e+01  2.24083e+01
3
# CELL(abcABC): 1322.94304  1322.94304  1322.94304    90.00000    90.00000    90.00000  Step:         300  Bead:       0 positions{angstrom}  cell{angstrom}
       E  4.17058e+01  6.31501e+00 -4.53600e+01
       E  3.35961e+01  1.36449e+01  9.97103e+00
       E -1.03105e+01  1.59734e+01  1.32261e+01
3
# CELL(abcABC): 1322.94304  1322.94304  1322.94304    90.00000    90.00000    90.00000  Step:         400  Bead:       0 positions{angstrom}  cell{angstrom}
       E  5.07480e+01  2.20961e+01 -3.19387e+01
       E  2.62182e+01  6.69320e+00 -1.04491e+00
       E -6.71388e+00  2.14356e+01  2.23540e+01
3
# CELL(abcABC): 1322.94304  1322.94304  1322.94304    90.00000    90.00000    90.00000  Step:         500  Bead:       0 positions{angstrom}  cell{angstrom}
       E  3.65204e+01  9.02740e+00 -1.57310e+01
       E  8.53643e+00  1.65384e+01  2.78571e+01
       E -1.74500e+01  9.45159e+00  2.80542e+01
3
# CELL(abcABC): 1322.94304  1322.94304  1322.94304    90.00000    90.00000    90.00000  Step:         600  Bead:       0 positions{angstrom}  cell{angstrom}
       E  3.57990e+00  1.00391e+01 -2.24553e+01
       E  9.36163e+00 -1.04664e+01  2.06300e+01
       E -5.03902e+01  1.59000e+01  3.29455e+01
3
# CELL(abcABC): 1322.94304  1322.94304  1322.94304    90.00000    90.00000    90.00000  Step:         700  Bead:       0 positions{angstrom}  cell{angstrom}
       E  1.41104e+01  1.55287e+00  5.86813e+00
       E -2.11304e+00 -1.80526e+01  1.54804e+00
       E -4.83177e+01  1.17377e+01  2.40170e+01
3
# CELL(abcABC): 1322.94304  1322.94304  1322.94304    90.00000    90.00000    90.00000  Step:         800  Bead:       0 positions{angstrom}  cell{angstrom}
       E  1.60412e+01  1.89500e+01  4.38925e+01
       E -2.27536e+00  7.72033e+00 -1.36388e+01
       E -2.51021e+01  3.00472e+01  4.77051e+01
3
# CELL(abcABC): 1322.94304  1322.94304  1322.94304    90.00000    90.00000    90.00000  Step:         900  Bead:       0 positions{angstrom}  cell{angstrom}
       E -1.15457e+01  4.08928e+00  2.14613e+01
       E  2.36818e+01 -7.09158e+00  2.11579e+01
       E -2.30991e+01  5.66070e+01  6.21249e+01
3
# CELL(abcABC): 1322.94304  1322.94304  1322.94304    90.00000    90.00000    90.00000  Step:        1000  Bead:       0 positions{angstrom}  cell{angstrom}
       E -1.46091e+01 -3.27282e+01  3.27207e+01
       E  1.32935e+01 -1.42718e+01 -2.02882e+01
       E -2.61452e+01  5.05984e+01  2.60055e+01
3
# CELL(abcABC): 1322.94304  1322.94304  1322.94304    90.00000    90.00000    90.00000  Step:        1100  Bead:       0 positions{angstrom}  cell{angstrom}
       E  1.89322e+01 -1.91707e+00 -9.64776e+00
       E  2.53063e+01 -1.12862e+01 -1.93354e+01
       E -2.70310e+01  5.95788e+01  4.06346e+01
3
# CELL(abcABC): 1322.94304  1322.94304  1322.94304    90.00000    90.00000    90.00000  Step:        1200  Bead:       0 positions{angstrom}  cell{angstrom}
       E -5.51063e+00  2.73459e+01 -2.35461e+01
       E  5.66453e+01 -6.72175e+00 -5.64808e+01
       E -1.04208e+01  3.73463e+01  1.09253e+01
3
# CELL(abcABC): 1322.94304  1322.94304  1322.94304    90.00000    90.00000    90.00000  Step:        1300  Bead:       0 positions{angstrom}  cell{angstrom}
       E -6.04850e+00  6.46234e+00 -6.15131e+01
       E  3.87000e+01 -1.75218e+01 -4.49172e+01
       E -5.98924e+01  3.10207e+01 -2.30063e+00
3
# CELL(abcABC): 1322.94304  1322.94304  1322.94304    90.00000    90.00000    90.00000  Step:        1400  Bead:       0 positions{angstrom}  cell{angstrom}
       E -4.38404e+01 -8.96703e+00 -5.05760e+01
       E -6.53903e+00  1.49814e+01 -1.38498e+01
       E -5.03489e+01  4.69485e+01 -2.47386e+01
3
# CELL(abcABC): 1322.94304  1322.94304  1322.94304    90.00000    90.00000    90.00000  Step:        1500  Bead:       0 positions{angstrom}  cell{angstrom}
       E -4.36290e+01  4.15086e+01 -7.54597e+01
       E -9.76431e+00  6.90016e+00  2.37940e+01
       E -5.10433e+01  2.69747e+01 -1.69357e+00
3
# CELL(abcABC): 1322.94304  1322.94304  1322.94304    90.00000    90.00000    90.00000  Step:        1600  Bead:       0 positions{angstrom}  cell{angstrom}
       E -3.33728e+01  4.61185e+01 -5.86894e+01
       E  3.15504e+00 -2.00579e+01  4.60661e+01
       E -4.44596e+01  3.49216e+01 -9.29038e+00
3
# CELL(abcABC): 1322.94304  1322.94304  1322.94304    90.00000    90.00000    90.00000  Step:        1700  Bead:       0 positions{angstrom}  cell{angstrom}
       E -4.26995e+01  1.57631e+01 -1.14680e+01
       E -1.14617e+01 -2.67934e+01  2.70111e+01
       E -6.64733e+01  6.05329e+01 -3.29246e+01
3
# CELL(abcABC): 1322.94304  1322.94304  1322.94304    90.00000    90.00000    90.00000  Step:        1800  Bead:       0 positions{angstrom}  cell{angstrom}
       E -1.09931e+01  3.22753e+01  9.62354e+00
       E -2.55202e+01 -4.22063e+01  5.04221e+01
       E -6.03416e+01  4.77173e+01 -1.50140e+01
3
# CELL(abcABC): 1322.94304  1322.94304  1322.94304    90.00000    90.00000    90.00000  Step:        1900  Bead:       0 positions{angstrom}  cell{angstrom}
       E -4.22377e+01  2.77265e+01  3.15958e+01
       E -1.91395e+01 -3.55680e+01  2.80632e+00
       E -8.51968e+01  3.36974e+01  3.96222e+00
3
# CELL(abcABC): 1322.94304  1322.94304  1322.94304    90.00000    90.00000    90.00000  Step:        2000  Bead:       0 positions{angstrom}  cell{angstrom}
       E -3.47309e+01 -2.18310e+01  4.67588e+01
       E -1.14129e+01 -1.64557e+01  1.49422e+01
       E -4.94634e+01  4.32906e+01  2.15644e+00
3
# CELL(abcABC): 1322.94304  1322.94304  1322.94304    90.00000    90.00000    90.00000  Step:        2100  Bead:       0 positions{angstrom}  cell{angstrom}
       E -4.04869e+01 -6.27492e+01  9.57786e+00
       E -5.20224e+01  1.10242e+01 -5.63835e+00
       E -6.94559e+01  4.83628e+01  3.63473e+00
3
# CELL(abcABC): 1322.94304  1322.94304  1322.94304    90.00000    90.00000    90.00000  Step:        2200  Bead:       0 positions{angstrom}  cell{angstrom}
       E  2.50141e+01 -1.10550e+02  1.37833e-01
       E -4.78961e+01  1.04315e+00 -1.31672e+00
       E -9.85622e+01  5.25088e+01  3.43184e+01
3
# CELL(abcABC): 1322.94304  1322.94304  1322.94304    90.00000    90.00000    90.00000  Step:        2300  Bead:       0 positions{angstrom}  cell{angstrom}
       E  9.61438e+00 -6.17127e+01 -2.51234e+01
       E -1.65774e+01 -1.91699e+00  3.77807e-01
       E -6.28329e+01  4.21474e+01  2.28133e+01
3
# CELL(abcABC): 1322.94304  1322.94304  1322.94304    90.00000    90.00000    90.00000  Step:        2400  Bead:       0 positions{angstrom}  cell{angstrom}
       E  1.54438e+01 -4.53878e+01  2.59276e+01
       E -2.81053e+00 -3.06307e+01 -2.89795e+01
       E -2.43211e+01  4.90562e+01  3.04093e+01
3
# CELL(abcABC): 1322.94304  1322.94304  1322.94304    90.00000    90.00000    90.00000  Step:        2500  Bead:       0 positions{angstrom}  cell{angstrom}
       E  1.04404e+00 -3.30167e+00  4.64628e+01
       E  1.17256e+01 -4.84971e+01  4.61577e+00
       E -5.96912e+01  1.35660e+01  5.39747e+01
3
# CELL(abcABC): 1322.94304  1322.94304  1322.94304    90.00000    90.00000    90.00000  Step:        2600  Bead:       0 positions{angstrom}  cell{angstrom}
       E -2.18856e+01 -3.76857e+00  9.37618e+01
       E  1.68782e+01 -4.81317e+01  1.10724e+00
       E -3.71504e+01 -3.78121e+01  4.19635e+01
3
# CELL(abcABC): 1322.94304  1322.94304  1322.94304    90.00000    90.00000    90.00000  Step:        2700  Bead:       0 positions{angstrom}  cell{angstrom}
       E -2.30101e+01 -4.02834e+01  9.03025e+01
       E  7.71541e+00 -3.23272e+01  8.91718e+00
       E -5.93744e+01 -3.83078e+01  2.86653e+01
3
# CELL(abcABC): 1322.94304  1322.94304  1322.94304    90.00000    90.00000    90.00000  Step:        2800  Bead:       0 positions{angstrom}  cell{angstrom}
       E -1.94213e+01 -6.39060e+01  7.14256e+01
       E  1.58151e+01 -4.42007e+01  1.94113e+01
       E -4.75264e+01 -1.33355e+01  2.49244e+01
3
# CELL(abcABC): 1322.94304  1322.94304  1322.94304    90.00000    90.00000    90.00000  Step:        2900  Bead:       0 positions{angstrom}  cell{angstrom}
       E -4.92173e+01 -1.00310e+02  5.83827e+01
       E  2.76588e+01 -5.29120e+01  1.89921e+01
       E -5.54005e+01 -1.23894e+01  5.61453e+01
3
# CELL(abcABC): 1322.94304  1322.94304  1322.94304    90.00000    90.00000    90.00000  Step:        3000  Bead:       0 positions{angstrom}  cell{angstrom}
       E -7.23242e+01 -3.83517e+01  3.61167e+01
       E  3.35751e+01 -7.35123e+01  2.42633e+01
       E -2.50443e+01 -6.91940e+00  3.59222e+01
3
# CELL(abcABC): 1322.94304  1322.94304  1322.94304    90.00000    90.00000    90.00000  Step:        3100  Bead:       0 positions{angstrom}  cell{angstrom}
       E -9.42968e+01 -3.02686e+01  3.06804e+01
       E  4.44004e+01 -6.48899e+01  2.88007e+01
       E -2.05716e+01  9.34855e+00  2.33302e+01
3
# CELL(abcABC): 1322.94304  1322.94304  1322.94304    90.00000    90.00000    90.00000  Step:        3200  Bead:       0 positions{angstrom}  cell{angstrom}
       E -8.10540e+01 -6.32137e+01  4.04924e+01
       E  4.96963e+01 -5.51362e+01  4.01343e+01
       E -2.03660e+01  1.43000e+01  5.90384e+01
3
# CELL(abcABC): 1322.94304  1322.94304  1322.94304    90.00000    90.00000    90.00000  Step:        3300  Bead:       0 positions{angstrom}  cell{angstrom}
       E -7.41420e+01 -1.84343e+01  8.38717e+01
       E  3.30976e+01 -2.85099e+01  3.78374e+01
       E -4.05460e+01  6.74263e+01  9.63269e+01
3
# CELL(abcABC): 1322.94304  1322.94304  1322.94304    90.00000    90.00000    90.00000  Step:        3400  Bead:       0 positions{angstrom}  cell{angstrom}
       E -8.53041e+01 -2.19601e+01  6.95249e+01
       E  2.17206e+01 -1.50549e+01  3.12775e+01
       E -3.02968e+01  5.04047e+01  7.67580e+01
3
# CELL(abcABC): 1322.94304  1322.94304  1322.94304    90.00000    90.00000    90.00000  Step:        3500  Bead:       0 positions{angstrom}  cell{angstrom}
       E -1.05964e+02 -3.11221e+01  3.41558e+01
       E  2.03516e+00 -2.42658e+01  3.08807e+01
       E -6.63238e+01  4.67885e+01  3.89501e+01
3
# CELL(abcABC): 1322.94304  1322.94304  1322.94304    90.00000    90.00000    90.00000  Step:        3600  Bead:       0 positions{angstrom}  cell{angstrom}
       E -8.97310e+01 -6.93159e+01 -7.83865e+00
       E -3.52339e+01 -4.36309e+01  5.05142e+00
       E -8.57007e+01  3.27257e+00  3.40189e+01
3
# CELL(abcABC): 1322.94304  1322.94304  1322.94304    90.00000    90.00000    90.00000  Step:        3700  Bead:       0 positions{angstrom}  cell{angstrom}
       E -5.20334e+01 -4.23656e+01 -2.97021e+01
       E -4.15995e+01 -4.56700e+01  2.25156e-01
       E -3.94911e+01  3.20615e+01  3.37459e+01
3
# CELL(abcABC): 1322.94304  1322.94304  1322.94304    90.00000    90.00000    90.00000  Step:        3800  Bead:       0 positions{angstrom}  cell{angstrom}
       E -3.54533e+01 -7.07420e+01  1.11484e+01
       E -6.09324e+01 -3.69414e+01 -2.75318e+01
       E -1.42091e+01 -8.56510e+00  2.43439e+01
3
# CELL(abcABC): 1322.94304  1322.94304  1322.94304    90.00000    90.00000    90.00000  Step:        3900  Bead:       0 positions{angstrom}  cell{angstrom}
       E -3.73825e+01 -3.96110e+01  1.91134e+00
       E -7.89778e+01 -2.89259e+01 -1.27039e+01
       E -3.54817e+01  2.21538e+00  3.45671e+01
3
# CELL(abcABC): 1322.94304  1322.94304  1322.94304    90.00000    90.00000    90.00000  Step:        4000  Bead:       0 positions{angstrom}  cell{angstrom}
       E -2.96979e+01 -2.26945e+01 -6.02074e+00
       E -9.38710e+01 -3.55619e+01 -3.66578e+01
       E -2.96875e+01  9.56551e+00  1.44789e+01
3
# CELL(abcABC): 1322.94304  1322.94304  1322.94304    90.00000    90.00000    90.00000  Step:        4100  Bead:       0 positions{angstrom}  cell{angstrom}
       E -5.30643e+01  1.26288e+01 -1.00938e+01
       E -5.05718e+01  2.05313e+01 -5.50956e+01
       E -4.53813e+01  4.74800e+01  3.05623e+01
3
# CELL(abcABC): 1322.94304  1322.94304  1322.94304    90.00000    90.00000    90.00000  Step:        4200  Bead:       0 positions{angstrom}  cell{angstrom}
       E -2.29917e+01 -1.81045e+01 -6.61434e+00
       E -6.82243e+01  1.49697e+01 -6.01637e+01
       E -5.78631e+01  1.53304e+01  1.24599e+01
3
# CELL(abcABC): 1322.94304  1322.94304  1322.94304    90.00000    90.00000    90.00000  Step:        4300  Bead:       0 positions{angstrom}  cell{angstrom}
       E -4.63473e+00  1.42838e+01 -1.18697e+01
       E -7.46478e+01  9.41966e+00 -7.33849e+01
       E -2.86000e+01 -1.67162e+01  9.71652e+00
3
# CELL(abcABC): 1322.94304  1322.94304  1322.94304    90.00000    90.00000    90.00000  Step:        4400  Bead:       0 positions{angstrom}  cell{angstrom}
       E -3.13898e+00  4.93949e+01  1.25931e+01
       E -6.65022e+01  6.77148e+01 -3.10141e+01
       E -5.25882e+01 -2.21458e+00 -3.49326e+00
3
# CELL(abcABC): 1322.94304  1322.94304  1322.94304    90.00000    90.00000    90.00000  Step:        4500  Bead:       0 positions{angstrom}  cell{angstrom}
       E -3.15882e+01  3.44316e+01  2.28084e+01
       E -7.18975e+01  5.76995e+01 -3.78162e+01
       E -2.60680e+01 -3.12197e+00 -6.64011e+00
3
# CELL(abcABC): 1322.94304  1322.94304  1322.94304    90.00000    90.00000    90.00000  Step:        4600  Bead:       0 positions{angstrom}  cell{angstrom}
       E  1.25786e+01  4.50709e+01  3.94294e+01
       E -5.61164e+01  1.55636e+01 -4.54134e-01
       E -3.45753e+00 -4.32536e+00  2.29410e+01
3
# CELL(abcABC): 1322.94304  1322.94304  1322.94304    90.00000    90.00000    90.00000  Step:        4700  Bead:       0 positions{angstrom}  cell{angstrom}
       E  1.49242e+00  1.03468e+01  7.11868e+00
       E -3.28351e+01  7.30631e+00 -5.16218e+01
       E -3.22473e+01 -1.04663e+01  1.99812e+01
3
# CELL(abcABC): 1322.94304  1322.94304  1322.94304    90.00000    90.00000    90.00000  Step:        4800  Bead:       0 positions{angstrom}  cell{angstrom}
       E  2.33189e+01  6.73216e+00  1.22192e+00
       E -4.44607e+01  1.64317e+01 -7.18239e+01
       E -6.72986e+00 -2.16918e+01 -1.05729e+01
3
# CELL(abcABC): 1322.94304  1322.94304  1322.94304    90.00000    90.00000    90.00000  Step:        4900  Bead:       0 positions{angstrom}  cell{angstrom}
       E  4.61263e+01 -2.73597e+01 -2.09353e+01
       E -4.97044e+01  1.50986e+01 -5.41181e+01
       E  1.39707e+01 -2.29520e+01 -4.74766e+01
3
# CELL(abcABC): 1322.94304  1322.94304  1322.94304    90.00000    90.00000    90.00000  Step:        5000  Bead:       0 positions{angstrom}  cell{angstrom}
       E  4.81742e+01 -3.55770e+01  2.53010e+01
       E -2.94740e+01  3.28212e+00 -6.95244e+01
       E  1.12369e+01 -3.28874e+01 -5.30345e+01
3
# CELL(abcABC): 1322.94304  1322.94304  1322.94304    90.00000    90.00000    90.00000  Step:        5100  Bead:       0 positions{angstrom}  cell{angstrom}
       E  3.94802e+01 -1.74951e+00  3.67442e+01
       E -1.74466e+01  3.38483e+01 -3.87951e+01
       E  1.57959e+01 -2.76268e+01 -1.78637e+01
3
# CELL(abcABC): 1322.94304  1322.94304  1322.94304    90.00000    90.00000    90.00000  Step:        5200  Bead:       0 positions{angstrom}  cell{angstrom}
       E  1.24900e+01 -4.78461e+00  3.64311e+00
       E -1.60164e+01  3.08551e+01 -4.39774e+01
       E -2.63784e+00  2.40674e+01 -8.45258e+00
3
# CELL(abcABC): 1322.94304  1322.94304  1322.94304    90.00000    90.00000    90.00000  Step:        5300  Bead:       0 positions{angstrom}  cell{angstrom}
       E -3.58236e-01  1.55110e+01  4.46791e+01
       E -3.61026e+01  4.59782e+01 -1.75921e+01
       E -1.44305e+01  3.13793e+01 -1.72991e+01
3
# CELL(abcABC): 1322.94304  1322.94304  1322.94304    90.00000    90.00000    90.00000  Step:        5400  Bead:       0 positions{angstrom}  cell{angstrom}
       E  3.32567e+00  6.44490e+00  4.10743e+01
       E -4.19108e+01  1.97179e+00 -3.97177e+01
       E -6.64355e+00  1.99751e+01 -4.78124e+01
3
# CELL(abcABC): 1322.94304  1322.94304  1322.94304    90.00000    90.00000    90.00000  Step:        5500  Bead:       0 positions{angstrom}  cell{angstrom}
       E  2.50136e+01 -4.08041e+00  2.15872e+01
       E -3.33857e+01  2.71771e+01  2.30270e+00
       E -2.77536e+01  3.92964e+01 -1.56008e+01
3
# CELL(abcABC): 1322.94304  1322.94304  1322.94304    90.00000    90.00000    90.00000  Step:        5600  Bead:       0 positions{angstrom}  cell{angstrom}
       E  1.65310e+01  5.87861e+00  2.36529e+01
       E -2.23384e+01  3.08453e+01 -1.39199e+01
       E -9.34192e+00  4.47664e+01 -3.61498e+00
3
# CELL(abcABC): 1322.94304  1322.94304  1322.94304    90.00000    90.00000    90.00000  Step:        5700  Bead:       0 positions{angstrom}  cell{angstrom}
       E -4.92658e+00 -1.28499e+01  5.11814e+00
       E -4.63650e+01  1.46237e+01 -1.94680e+01
       E -2.64092e+01  1.80008e+01 -1.41683e+00
3
# CELL(abcABC): 1322.94304  1322.94304  1322.94304    90.00000    90.00000    90.00000  Step:        5800  Bead:       0 positions{angstrom}  cell{angstrom}
       E -2.93817e+01 -2.39029e+01 -3.58801e+00
       E -5.24297e+01  1.10438e+01  1.01090e+01
       E -6.57047e+00  2.86391e+01 -1.71562e+00
3
# CELL(abcABC): 1322.94304  1322.94304  1322.94304    90.00000    90.00000    90.00000  Step:        5900  Bead:       0 positions{angstrom}  cell{angstrom}
       E -1.77046e+00 -3.93671e+01  1.70466e+01
       E -4.16365e+01  3.63926e+01 -6.23512e+00
       E -1.03268e+01  1.13705e+01 -2.76721e+01
3
# CELL(abcABC): 1322.94304  1322.94304  1322.94304    90.00000    90.00000    90.00000  Step:        6000  Bead:       0 positions{angstrom}  cell{angstrom}
       E  5.32499e+00 -6.68768e+01 -2.41593e+01
       E -4.06673e+01 -3.59182e+00 -7.38184e+00
       E  3.88015e+01  1.13182e+00 -5.10263e+01
3
# CELL(abcABC): 1322.94304  1322.94304  1322.94304    90.00000    90.00000    90.00000  Step:        6100  Bead:       0 positions{angstrom}  cell{angstrom}
       E  1.82758e+01 -5.32217e+01  7.03460e-01
       E  8.83046e-01 -3.74121e+01 -1.74994e+01
       E  4.83791e+01  1.09515e+01 -5.30652e+01
3
# CELL(abcABC): 1322.94304  1322.94304  1322.94304    90.00000    90.00000    90.00000  Step:        6200  Bead:       0 positions{angstrom}  cell{angstrom}
       E  2.91517e+01 -6.58114e+01 -3.59511e+01
       E  3.18388e+01 -5.30571e+01  1.16229e+01
       E  6.40142e+01 -3.88271e+00 -6.37907e+01
3
# CELL(abcABC): 1322.94304  1322.94304  1322.94304    90.00000    90.00000    90.00000  Step:        6300  Bead:       0 positions{angstrom}  cell{angstrom}
       E  1.80120e+01 -8.35146e+01 -8.58510e+01
       E  5.11864e+01 -7.04002e+01  1.05432e+01
       E  5.10775e+01  1.90620e+01 -2.79002e+01
3
# CELL(abcABC): 1322.94304  1322.94304  1322.94304    90.00000    90.00000    90.00000  Step:        6400  Bead:       0 positions{angstrom}  cell{angstrom}
       E -1.03135e+01 -9.07656e+01 -8.33102e+01
       E  4.42024e+01 -5.20598e+01  2.19338e+01
       E  3.82285e+01  1.29329e+01 -3.25955e+01
3
# CELL(abcABC): 1322.94304  1322.94304  1322.94304    90.00000    90.00000    90.00000  Step:        6500  Bead:       0 positions{angstrom}  cell{angstrom}
       E -3.55504e-02 -8.06774e+01 -9.64261e+01
       E  2.51592e+01 -2.80008e+01 -9.88159e+00
       E -1.51412e+01  1.24314e+01 -7.04352e+01
3
# CELL(abcABC): 1322.94304  1322.94304  1322.94304    90.00000    90.00000    90.00000  Step:        6600  Bead:       0 positions{angstrom}  cell{angstrom}
       E -3.53431e+00 -7.39139e+01 -1.06485e+02
       E  1.22711e+01 -5.03547e+01  1.61632e+00
       E -3.26580e+01 -1.93296e+01 -2.98861e+01
3
# CELL(abcABC): 1322.94304  1322.94304  1322.94304    90.00000    90.00000    90.00000  Step:        6700  Bead:       0 positions{angstrom}  cell{angstrom}
       E  1.20108e+01 -8.56451e+01 -1.08825e+02
       E  1.88170e+01 -4.53397e+01  4.24152e-01
       E -1.71935e+01  1.77639e+01 -3.03816e+00
3
# CELL(abcABC): 1322.94304  1322.94304  1322.94304    90.00000    90.00000    90.00000  Step:        6800  Bead:       0 positions{angstrom}  cell{angstrom}
       E  3.49021e+00 -8.07237e+01 -1.00692e+02
       E  1.31000e+01 -4.57785e+01  2.59356e+01
       E  1.80132e+01  3.55219e+01  1.98672e-01
3
# CELL(abcABC): 1322.94304  1322.94304  1322.94304    90.00000    90.00000    90.00000  Step:        6900  Bead:       0 positions{angstrom}  cell{angstrom}
       E -1.57629e+01 -8.95036e+01 -6.17442e+01
       E  1.59970e+00 -5.35865e+01  1.68906e+01
       E  2.85342e+01  1.69148e+01  4.39252e-01
3
# CELL(abcABC): 1322.94304  1322.94304  1322.94304    90.00000    90.00000    90.00000  Step:        7000  Bead:       0 positions{angstrom}  cell{angstrom}
       E -8.53302e-01 -3.82958e+01 -2.62694e+01
       E  1.68599e+00 -1.41380e+01  1.04339e+01
       E  1.54207e+01  7.76436e+01 -3.22299e+00
3
# CELL(abcABC): 1322.94304  1322.94304  1322.94304    90.00000    90.00000    90.00000  Step:        7100  Bead:       0 positions{angstrom}  cell{angstrom}
       E -1.39405e+01 -2.43938e+01 -3.44758e+01
       E  1.25264e+01  2.03575e+00  2.19738e+01
       E  4.35958e+00  7.67850e+01  3.43760e-01
3
# CELL(abcABC): 1322.94304  1322.94304  1322.94304    90.00000    90.00000    90.00000  Step:        7200  Bead:       0 positions{angstrom}  cell{angstrom}
       E -1.26982e+01 -1.72053e+01 -5.85294e+01
       E -1.50973e+01  2.65016e+00  2.64586e+01
       E -7.24439e+00  8.78876e+01  2.10659e+01
3
# CELL(abcABC): 1322.94304  1322.94304  1322.94304    90.00000    90.00000    90.00000  Step:        7300  Bead:       0 positions{angstrom}  cell{angstrom}
       E  3.49352e+01 -3.21625e+01 -5.84103e+01
       E  1.26373e+01  1.75120e+00  4.65273e+00
       E -1.35701e+00  5.41485e+01  3.96446e+00
3
# CELL(abcABC): 1322.94304  1322.94304  1322.94304    90.00000    90.00000    90.00000  Step:        7400  Bead:       0 positions{angstrom}  cell{angstrom}
       E  3.41000e+01  3.53960e+00 -2.79019e+01
       E  1.99949e+01 -1.76657e+01  1.26632e+01
       E  7.55271e+00  4.97550e+01 -1.15314e+01
3
# CELL(abcABC): 1322.94304  1322.94304  1322.94304    90.00000    90.00000    90.00000  Step:        7500  Bead:       0 positions{angstrom}  cell{angstrom}
       E  2.94237e-01 -1.53908e+01 -4.17314e+01
       E -3.19124e+01 -2.10255e+01 -7.07350e+00
       E  2.90934e+01  4.83464e+01 -5.03645e+00
3
# CELL(abcABC): 1322.94304  1322.94304  1322.94304    90.00000    90.00000    90.00000  Step:        7600  Bead:       0 positions{angstrom}  cell{angstrom}
       E -2.32974e+00 -2.00702e+01 -4.10369e+01
       E -1.20014e+01 -3.64713e+01 -4.32169e+00
       E  2.11125e+01  1.70210e+01 -7.00833e+00
3
# CELL(abcABC): 1322.94304  1322.94304  1322.94304    90.00000    90.00000    90.00000  Step:        7700  Bead:       0 positions{angstrom}  cell{angstrom}
       E -9.10872e+00 -6.93899e+01 -4.63116e+01
       E  1.25347e+01 -4.24557e+01 -1.18091e+01
       E  2.08536e+01 -3.07965e+01 -1.06465e+00
3
# CELL(abcABC): 1322.94304  1322.94304  1322.94304    90.00000    90.00000    90.00000  Step:        7800  Bead:       0 positions{angstrom}  cell{angstrom}
       E  1.93357e+01 -5.37476e+01 -3.41192e+01
       E  3.31557e+01 -3.96470e+01 -5.79251e+01
       E  3.28906e+01 -3.09931e+01 -3.79423e+01
3
# CELL(abcABC): 1322.94304  1322.94304  1322.94304    90.00000    90.00000    90.00000  Step:        7900  Bead:       0 positions{angstrom}  cell{angstrom}
       E  2.44622e+01 -2.24918e+01 -2.67810e+01
       E  4.70511e+01 -4.13767e+00 -4.20471e+01
       E  4.93213e+01  1.32327e+01 -4.90435e+01
3
# CELL(abcABC): 1322.94304  1322.94304  1322.94304    90.00000    90.00000    90.00000  Step:        8000  Bead:       0 positions{angstrom}  cell{angstrom}
       E  2.70546e+01  1.40264e+01 -4.06766e+01
       E  2.15879e+01 -2.93135e+00 -3.70297e+01
       E  5.51654e+00 -1.92327e+01 -4.41742e+00
3
# CELL(abcABC): 1322.94304  1322.94304  1322.94304    90.00000    90.00000    90.00000  Step:        8100  Bead:       0 positions{angstrom}  cell{angstrom}
       E  5.79085e+01  4.60939e+01 -4.22659e+01
       E  1.13150e+01  1.63082e+01 -9.05887e+00
       E -5.62774e+01 -4.70940e+01  3.51835e+00
3
# CELL(abcABC): 1322.94304  1322.94304  1322.94304    90.00000    90.00000    90.00000  Step:        8200  Bead:       0 positions{angstrom}  cell{angstrom}
       E  3.68565e+01  1.02515e+00 -3.33368e+01
       E  8.34931e+00  3.93091e+01 -1.57992e+01
       E -2.09373e+01 -5.66089e+01  2.70594e+01
3
# CELL(abcABC): 1322.94304  1322.94304  1322.94304    90.00000    90.00000    90.00000  Step:        8300  Bead:       0 positions{angstrom}  cell{angstrom}
       E  3.88926e+01  1.99682e+01 -3.19681e+01
       E  5.18504e+01  1.92021e+01  2.08554e+01
       E -1.64262e+01 -4.31950e+01  2.93870e+01
3
# CELL(abcABC): 1322.94304  1322.94304  1322.94304    90.00000    90.00000    90.00000  Step:        8400  Bead:       0 positions{angstrom}  cell{angstrom}
       E  4.69878e+01 -2.07725e+01 -3.38228e+01
       E  1.76033e+01  2.70711e+01  2.81315e+01
       E  1.54911e+01 -3.57938e+01  5.16223e+01
3
# CELL(abcABC): 1322.94304  1322.94304  1322.94304    90.00000    90.00000    90.00000  Step:        8500  Bead:       0 positions{angstrom}  cell{angstrom}
       E -1.72862e+01 -6.30241e+00 -1.28086e+01
       E  3.26643e+01  3.09640e+01  3.36048e+01
       E  2.62637e+01  3.71612e+00  3.53514e+01
3
# CELL(abcABC): 1322.94304  1322.94304  1322.94304    90.00000    90.00000    90.00000  Step:        8600  Bead:       0 positions{angstrom}  cell{angstrom}
       E  9.89194e-01 -4.77753e+00 -3.22324e+01
       E  3.66582e+01  5.98745e+00  3.33385e+01
       E  4.69659e+01  1.73041e+01  4.36113e+01
3
# CELL(abcABC): 1322.94304  1322.94304  1322.94304    90.00000    90.00000    90.00000  Step:        8700  Bead:       0 positions{angstrom}  cell{angstrom}
       E -4.49689e+01  2.70099e+01 -4.38025e+01
       E  2.10162e+01 -1.03566e+01 -1.07119e+01
       E  6.41978e+01 -3.58776e+01  2.11059e+01
3
# CELL(abcABC): 1322.94304  1322.94304  1322.94304    90.00000    90.00000    90.00000  Step:        8800  Bead:       0 positions{angstrom}  cell{angstrom}
       E -2.04747e+01  3.07207e+01 -2.45382e+01
       E  2.08977e+01 -2.89845e+01  3.73984e+01
       E  6.24543e+01 -5.47836e+01  5.05066e+01
3
# CELL(abcABC): 1322.94304  1322.94304  1322.94304    90.00000    90.00000    90.00000  Step:        8900  Bead:       0 positions{angstrom}  cell{angstrom}
       E -1.87992e+01  4.54228e+01 -1.08182e+01
       E -7.17611e+00 -2.93211e+01  4.96000e+01
       E  6.06438e+00 -8.67112e+01  6.17866e+01
3
# CELL(abcABC): 1322.94304  1322.94304  1322.94304    90.00000    90.00000    90.00000  Step:        9000  Bead:       0 positions{angstrom}  cell{angstrom}
       E -1.65444e+01  6.85243e+01  1.77549e+01
       E -3.72711e+01 -4.26265e+01  9.67611e+00
       E  1.54812e+01 -7.98855e+01 -8.44917e-01
3
# CELL(abcABC): 1322.94304  1322.94304  1322.94304    90.00000    90.00000    90.00000  Step:        9100  Bead:       0 positions{angstrom}  cell{angstrom}
       E  3.95733e+01  4.07585e+01  3.53541e+01
       E -4.03357e+01  5.56622e+00  1.98432e+01
       E -9.00969e+00 -8.38987e+01 -4.06923e+00
3
# CELL(abcABC): 1322.94304  1322.94304  1322.94304    90.00000    90.00000    90.00000  Step:        9200  Bead:       0 positions{angstrom}  cell{angstrom}
       E  3.05872e+01  2.49642e+01  8.32509e+00
       E  2.00664e+00 -4.63412e+00  7.07276e+01
       E  1.32453e+01 -5.20077e+01 -1.82759e+01
3
# CELL(abcABC): 1322.94304  1322.94304  1322.94304    90.00000    90.00000    90.00000  Step:        9300  Bead:       0 positions{angstrom}  cell{angstrom}
       E  3.89160e+01  6.21884e+01 -6.67617e+01
       E -5.71329e+00 -5.28194e+01  2.73323e+01
       E  6.68700e+01 -8.12082e+00  1.55952e+01
3
# CELL(abcABC): 1322.94304  1322.94304  1322.94304    90.00000    90.00000    90.00000  Step:        9400  Bead:       0 positions{angstrom}  cell{angstrom}
       E  4.04598e+01  3.95050e+01 -4.14193e+01
       E  9.74276e+00 -3.21229e+01  9.15610e+00
       E  1.66607e+01 -3.95431e+00 -2.60076e+00
3
# CELL(abcABC): 1322.94304  1322.94304  1322.94304    90.00000    90.00000    90.00000  Step:        9500  Bead:       0 positions{angstrom}  cell{angstrom}
       E  2.34155e+00  1.31400e+01 -3.90042e+01
       E  3.91259e+01 -2.22517e+01  1.53875e+01
       E  1.20189e+01 -1.29695e+01 -2.75352e+00
3
# CELL(abcABC): 1322.94304  1322.94304  1322.94304    90.00000    90.00000    90.00000  Step:        9600  Bead:       0 positions{angstrom}  cell{angstrom}
       E -1.57972e+01  9.35995e+00 -4.34787e+01
       E  2.42066e+01 -1.87649e+01  1.58921e+01
       E -1.45578e+01 -4.29983e+01 -2.11709e+01
3
# CELL(abcABC): 1322.94304  1322.94304  1322.94304    90.00000    90.00000    90.00000  Step:        9700  Bead:       0 positions{angstrom}  cell{angstrom}
       E -5.07004e+01 -4.00057e+01 -5.16119e+01
       E  6.37509e+01 -6.39063e+01 -1.17037e+01
       E -1.45904e+01 -1.70517e+01 -1.00820e+01
3
# CELL(abcABC): 1322.94304  1322.94304  1322.94304    90.00000    90.00000    90.00000  Step:        9800  Bead:       0 positions{angstrom}  cell{angstrom}
       E -2.79604e+01 -6.88361e+01 -7.26920e+01
       E  6.13177e+01 -8.07075e+01 -2.41865e+01
       E  3.73941e+00 -3.59825e+01  2.79702e+01
3