3
# CELL(abcABC): 1322.94304  1322.94304  1322.94304    90.00000    90.00000    90.00000  Step:           0  Bead:      13 positions{angstrom}  cell{angstrom}
       E  0.00000e+00  0.00000e+00  0.00000e+00
       E  0.00000e+00  0.00000e+00  0.00000e+00
       E  0.00000e+00  0.00000e+00  0.00000e+00
3
# CELL(abcABC): 1322.94304  1322.94304  1322.94304    90.00000    90.00000    90.00000  Step:         100  Bead:      13 positions{angstrom}  cell{angstrom}
       E -1.06179e+01 -1.65903e+01  1.37536e+01
       E  3.42773e+01  2.27371e+00  1.44990e+00
       E -3.38125e+01  1.06644e+01 -2.50737e+01
3
# CELL(abcABC): 1322.94304  1322.94304  1322.94304    90.00000    90.00000    90.00000  Step:         200  Bead:      13 positions{angstrom}  cell{angstrom}
       E  1.04331e+01  6.82064e+00  4.77851e+00
       E  1.67963e+01 -1.74255e+01 -3.30350e+01
       E -4.09568e+01  5.16915e+00 -4.31474e+00
3
# CELL(abcABC): 1322.94304  1322.94304  1322.94304    90.00000    90.00000    90.00000  Step:         300  Bead:      13 positions{angstrom}  cell{angstrom}
       E -1.39063e+01  4.19238e+01 -2.92398e+00
       E  9.57515e+00 -1.04383e+01 -4.24001e+01
       E -3.07571e+01  3.32489e+01  1.83719e+01
3
# CELL(abcABC): 1322.94304  1322.94304  1322.94304    90.00000    90.00000    90.00000  Step:         400  Bead:      13 positions{angstrom}  cell{angstrom}
       E -2.30178e+01  2.48144e+01  9.79649e+00
       E  1.27280e+01  4.29784e+01 -9.68571e+00
       E -1.45693e+01  2.63049e+01  6.63074e+00
3
# CELL(abcABC): 1322.94304  1322.94304  1322.94304    90.00000    90.00000    90.00000  Step:         500  Bead:      13 positions{angstrom}  cell{angstrom}
       E -2.45748e+01  2.26458e+01 -2.35528e+01
       E  3.36764e+01  3.47989e+01 -2.53703e+00
       E  2.00647e+01  5.69754e+00  2.70534e+01
3
# CELL(abcABC): 1322.94304  1322.94304  1322.94304    90.00000    90.00000    90.00000  Step:         600  Bead:      13 positions{angstrom}  cell{angstrom}
       E  1.85112e+01  1.72991e+01 -4.52463e+01
       E  2.32379e+01 -1.72698e+00  3.19189e+01
       E  8.47610e+00 -1.95587e+01  1.61257e+01
3
# CELL(abcABC): 1322.94304  1322.94304  1322.94304    90.00000    90.00000    90.00000  Step:         700  Bead:      13 positions{angstrom}  cell{angstrom}
       E -3.43234e+01  2.78093e+01 -2.24015e+01
       E  2.24897e+01  3.53841e+01  3.86356e+01
       E  1.58154e+00  9.29465e+00  2.99195e+01
3
# CELL(abcABC): 1322.94304  1322.94304  1322.94304    90.00000    90.00000    90.00000  Step:         800  Bead:      13 positions{angstrom}  cell{angstrom}
       E -1.10679e+01  8.94774e+00  3.11226e+00
       E -1.88577e+01  4.59287e+01 -2.33265e+01
       E -3.08057e+01  7.50031e+00  4.19939e+01
3
# CELL(abcABC): 1322.94304  1322.94304  1322.94304    90.00000    90.00000    90.00000  Step:         900  Bead:      13 positions{angstrom}  cell{angstrom}
       E  1.31961e+01  7.57943e+00  2.74581e+00
       E  2.25132e+01  4.38692e+01 -3.57091e+01
       E -2.87632e+01 -1.40647e+01  6.55926e+01
3
# CELL(abcABC): 1322.94304  1322.94304  1322.94304    90.00000    90.00000    90.00000  Step:        1000  Bead:      13 positions{angstrom}  cell{angstrom}
       E  5.89632e+00 -5.70569e+00 -3.72876e+01
       E  2.09842e+01 -1.49103e+00 -4.69719e+01
       E -2.49163e+00 -1.31000e+01  4.14732e+01
3
# CELL(abcABC): 1322.94304  1322.94304  1322.94304    90.00000    90.00000    90.00000  Step:        1100  Bead:      13 positions{angstrom}  cell{angstrom}
       E  2.01566e+01 -5.65857e+00 -3.94186e+01
       E -1.98335e+01 -3.12967e+00 -4.44216e+01
       E -6.59228e+00  5.28620e+01  2.57894e+01
3
# CELL(abcABC): 1322.94304  1322.94304  1322.94304    90.00000    90.00000    90.00000  Step:        1200  Bead:      13 positions{angstrom}  cell{angstrom}
       E -1.51783e+01 -6.79049e-02 -8.11266e+01
       E  1.37424e+01 -3.44101e+00 -6.96430e+00
       E  3.73810e+00  4.85699e+01  2.53675e+01
3
# CELL(abcABC): 1322.94304  1322.94304  1322.94304    90.00000    90.00000    90.00000  Step:        1300  Bead:      13 positions{angstrom}  cell{angstrom}
       E -2.27096e+01 -1.15370e+01 -7.73154e+01
       E  2.83543e+01  8.43829e+00 -4.04572e+01
       E -7.03064e+00  4.65370e+01  1.62163e+00
3
# CELL(abcABC): 1322.94304  1322.94304  1322.94304    90.00000    90.00000    90.00000  Step:        1400  Bead:      13 positions{angstrom}  cell{angstrom}
       E  2.49747e+01  4.33273e+01 -9.03580e+01
       E  8.67278e+00 -6.61288e+00 -3.21354e+01
       E -1.90339e+01  2.92693e+01 -2.73762e+00
3
# CELL(abcABC): 1322.94304  1322.94304  1322.94304    90.00000    90.00000    90.00000  Step:        1500  Bead:      13 positions{angstrom}  cell{angstrom}
       E -1.14750e+01  1.54710e+01 -9.06680e+01
       E -8.38059e+00 -1.69581e+01 -2.40415e+01
       E -3.42696e+01  1.21856e+01  1.66477e+01
3
# CELL(abcABC): 1322.94304  1322.94304  1322.94304    90.00000    90.00000    90.00000  Step:        1600  Bead:      13 positions{angstrom}  cell{angstrom}
       E  2.53825e+01  4.35706e+01 -5.42693e+01
       E -2.05636e+00  5.17815e+01  1.44775e+01
       E -5.86581e+01  3.88762e+01  1.63890e+01
3
# CELL(abcABC): 1322.94304  1322.94304  1322.94304    90.00000    90.00000    90.00000  Step:        1700  Bead:      13 positions{angstrom}  cell{angstrom}
       E  5.22389e+00 -5.21626e+00  1.07330e+01
       E  6.80735e+00  8.55714e+01  1.13716e+01
       E -6.41248e+01  3.29695e+01  1.40840e+01
3
# CELL(abcABC): 1322.94304  1322.94304  1322.94304    90.00000    90.00000    90.00000  Step:        1800  Bead:      13 positions{angstrom}  cell{angstrom}
       E  1.80330e+01  2.53238e+01  3.15416e+01
       E -4.44553e+01  7.16911e+01  2.98730e+01
       E -8.67429e+01  4.62610e+01  3.42766e+01
3
# CELL(abcABC): 1322.94304  1322.94304  1322.94304    90.00000    90.00000    90.00000  Step:        1900  Bead:      13 positions{angstrom}  cell{angstrom}
       E  4.01226e+00  1.42892e+01  5.08115e+01
       E -7.98848e+01  7.37572e+01  4.30534e+01
       E -7.04458e+01  4.12400e+01  4.40338e+01
3
# CELL(abcABC): 1322.94304  1322.94304  1322.94304    90.00000    90.00000    90.00000  Step:        2000  Bead:      13 positions{angstrom}  cell{angstrom}
       E -2.63276e+01 -1.90488e+01  4.47403e+01
       E -4.98534e+01  6.70653e+01  9.62912e+00
       E -8.26471e+01  7.86296e+01  2.28582e+01
3
# CELL(abcABC): 1322.94304  1322.94304  1322.94304    90.00000    90.00000    90.00000  Step:        2100  Bead:      13 positions{angstrom}  cell{angstrom}
       E -2.90039e+01 -5.96672e+01  6.69857e+01
       E -3.95507e+01  3.77244e+01 -1.33603e+01
       E -8.59010e+01  6.62525e+01  2.82028e+01
3
# CELL(abcABC): 1322.94304  1322.94304  1322.94304    90.00000    90.00000    90.00000  Step:        2200  Bead:      13 positions{angstrom}  cell{angstrom}
       E -4.88117e+01 -5.36578e+01  7.06984e+01
       E -1.38808e+01 -1.27872e+01 -4.45305e+01
       E -4.94213e+01  6.94314e+01  9.33752e+00
3
# CELL(abcABC): 1322.94304  1322.94304  1322.94304    90.00000    90.00000    90.00000  Step:        2300  Bead:      13 positions{angstrom}  cell{angstrom}
       E -1.32702e+01 -6.98938e+01  4.64603e+01
       E -1.84393e+01 -3.38550e+00 -7.49208e+00
       E -3.40289e+01  3.65639e+01  2.16181e+01
3
# CELL(abcABC): 1322.94304  1322.94304  1322.94304    90.00000    90.00000    90.00000  Step:        2400  Bead:      13 positions{angstrom}  cell{angstrom}
       E -2.64201e+01 -6.43421e+01  1.99187e+01
       E  8.33482e+00  9.53947e+00  9.23313e+00
       E -9.14580e+00  1.08149e+01  4.04867e+01
3
# CELL(abcABC): 1322.94304  1322.94304  1322.94304    90.00000    90.00000    90.00000  Step:        2500  Bead:      13 positions{angstrom}  cell{angstrom}
       E -2.43560e+01 -2.12892e+01  2.70094e+01
       E  1.04848e+00 -1.48181e+01 -4.13954e+01
       E  2.26284e+01 -2.63664e+01  1.02657e+01
3
# CELL(abcABC): 1322.94304  1322.94304  1322.94304    90.00000    90.00000    90.00000  Step:        2600  Bead:      13 positions{angstrom}  cell{angstrom}
       E -1.48121e+01 -9.51249e+00  4.24020e+01
       E -3.92100e+01 -3.19649e+01 -3.01157e+01
       E  5.07174e+00 -8.57461e+00  4.54126e+00
3
# CELL(abcABC): 1322.94304  1322.94304  1322.94304    90.00000    90.00000    90.00000  Step:        2700  Bead:      13 positions{angstrom}  cell{angstrom}
       E -2.01565e+01  1.19541e+01  3.77934e+01
       E -3.78333e+01 -3.24299e+01 -1.27656e+01
       E -2.43580e+00 -2.24117e+01  2.04391e+01
3
# CELL(abcABC): 1322.94304  1322.94304  1322.94304    90.00000    90.00000    90.00000  Step:        2800  Bead:      13 positions{angstrom}  cell{angstrom}
       E -5.53415e+01 -3.65979e+01  1.69519e+01
       E -3.62323e+01 -4.23776e+01  1.89690e+01
       E  2.45183e+01  4.52200e+00  3.30645e+01
3
# CELL(abcABC): 1322.94304  1322.94304  1322.94304    90.00000    90.00000    90.00000  Step:        2900  Bead:      13 positions{angstrom}  cell{angstrom}
       E -4.33696e+01 -3.46302e+01  1.94237e+01
       E -3.69251e+01 -7.59608e+01 -3.45974e+00
       E -9.61125e+00 -1.52034e+00  1.65773e+01
3
# CELL(abcABC): 1322.94304  1322.94304  1322.94304    90.00000    90.00000    90.00000  Step:        3000  Bead:      13 positions{angstrom}  cell{angstrom}
       E -5.06575e+01 -3.51405e+01  2.02603e+01
       E -2.38044e+01 -6.44832e+01  1.14197e+01
       E -7.36968e+00  1.66210e+01 -8.16293e+00
3
# CELL(abcABC): 1322.94304  1322.94304  1322.94304    90.00000    90.00000    90.00000  Step:        3100  Bead:      13 positions{angstrom}  cell{angstrom}
       E -4.19211e+01 -2.81315e+01  3.51457e+01
       E -3.53410e+01 -4.12633e+01  5.71385e+01
       E  6.42101e+00  4.40834e+01  2.54605e+01
3
# CELL(abcABC): 1322.94304  1322.94304  1322.94304    90.00000    90.00000    90.00000  Step:        3200  Bead:      13 positions{angstrom}  cell{angstrom}
       E -3.54706e+01 -4.14404e+01  2.68000e+01
       E -6.25092e+01 -2.47663e+01  4.51792e+01
       E  2.44793e+01  7.93681e+01  5.15616e+01
3
# CELL(abcABC): 1322.94304  1322.94304  1322.94304    90.00000    90.00000    90.00000  Step:        3300  Bead:      13 positions{angstrom}  cell{angstrom}
       E -4.88766e+01 -4.27546e+01 -1.54224e+01
       E -3.79633e+01 -1.34152e+01  5.94642e+01
       E -3.16258e+01  7.50035e+01  4.95335e+01
3
# CELL(abcABC): 1322.94304  1322.94304  1322.94304    90.00000    90.00000    90.00000  Step:        3400  Bead:      13 positions{angstrom}  cell{angstrom}
       E -3.60400e+01 -9.34320e+00  2.37605e+01
       E -3.52113e+01 -4.36775e+00  7.19670e+01
       E -4.93956e+01  4.31500e+01  4.02026e+01
3
# CELL(abcABC): 1322.94304  1322.94304  1322.94304    90.00000    90.00000    90.00000  Step:        3500  Bead:      13 positions{angstrom}  cell{angstrom}
       E -5.85368e+01  9.81389e+00  4.33154e+01
       E -2.88641e+00  9.47475e+00  4.38294e+01
       E -3.63662e+01  4.14235e+01  5.39144e+01
3
# CELL(abcABC): 1322.94304  1322.94304  1322.94304    90.00000    90.00000    90.00000  Step:        3600  Bead:      13 positions{angstrom}  cell{angstrom}
       E -4.81650e+01 -8.51201e+00  2.78501e+01
       E  3.52361e+00  1.15078e+01 -7.92664e+00
       E  1.96246e+01  4.27401e+01  3.44623e+01
3
# CELL(abcABC): 1322.94304  1322.94304  1322.94304    90.00000    90.00000    90.00000  Step:        3700  Bead:      13 positions{angstrom}  cell{angstrom}
       E -6.16559e+01 -1.14534e+01 -1.64371e+01
       E -6.22973e+00 -1.28950e+01  1.28995e+01
       E -3.33803e+01  9.92686e+00  1.15566e+00
3
# CELL(abcABC): 1322.94304  1322.94304  1322.94304    90.00000    90.00000    90.00000  Step:        3800  Bead:      13 positions{angstrom}  cell{angstrom}
       E -7.62048e+01 -4.03775e+01 -2.35316e+01
       E -1.19103e+01 -2.50327e+01 -2.23478e+01
       E -4.20937e+01  2.03154e+01 -8.22234e+00
3
# CELL(abcABC): 1322.94304  1322.94304  1322.94304    90.00000    90.00000    90.00000  Step:        3900  Bead:      13 positions{angstrom}  cell{angstrom}
       E -9.41928e+01 -1.60019e+01 -3.88688e+01
       E -3.36400e+01  3.01142e+00 -2.88649e+00
       E -2.34056e+01  3.22700e+01 -1.30019e+01
3
# CELL(abcABC): 1322.94304  1322.94304  1322.94304    90.00000    90.00000    90.00000  Step:        4000  Bead:      13 positions{angstrom}  cell{angstrom}
       E -7.10430e+01  4.52935e+01 -7.80979e+01
       E -5.21219e+01  1.04836e+01  3.76409e+01
       E -3.10867e+01  3.61399e+01  1.38637e+01
3
# CELL(abcABC): 1322.94304  1322.94304  1322.94304    90.00000    90.00000    90.00000  Step:        4100  Bead:      13 positions{angstrom}  cell{angstrom}
       E -5.64808e+01  3.32811e+01 -7.14992e+01
       E -5.48329e+01  3.60048e+01  5.14151e+01
       E -2.00897e+01  1.12435e+01  4.23518e+01
3
# CELL(abcABC): 1322.94304  1322.94304  1322.94304    90.00000    90.00000    90.00000  Step:        4200  Bead:      13 positions{angstrom}  cell{angstrom}
       E -2.94020e+01  3.69877e+01 -6.21364e+01
       E -5.70449e+01  3.18430e+01  4.85872e+01
       E  1.43503e+01  3.42846e+01  6.54852e+01
3
# CELL(abcABC): 1322.94304  1322.94304  1322.94304    90.00000    90.00000    90.00000  Step:        4300  Bead:      13 positions{angstrom}  cell{angstrom}
       E -6.67281e+01  1.50860e+01 -6.20450e+01
       E -5.67610e+01  1.12294e+01  4.75230e+01
       E  1.02642e+01  5.88709e+01  6.02568e+01
3
# CELL(abcABC): 1322.94304  1322.94304  1322.94304    90.00000    90.00000    90.00000  Step:        4400  Bead:      13 positions{angstrom}  cell{angstrom}
       E -4.71645e+01  3.79707e+00 -2.85132e+01
       E -5.34573e+01  5.07838e+01 -1.09516e+01
       E -3.98934e+01  2.15924e+01 -2.32526e+01
3
# CELL(abcABC): 1322.94304  1322.94304  1322.94304    90.00000    90.00000    90.00000  Step:        4500  Bead:      13 positions{angstrom}  cell{angstrom}
       E -4.38258e+01  1.25780e+01 -3.73348e+01
       E -7.80624e+01  5.30461e+01 -2.08213e+01
       E -8.73839e+00 -1.10934e+01  4.04112e+01
3
# CELL(abcABC): 1322.94304  1322.94304  1322.94304    90.00000    90.00000    90.00000  Step:        4600  Bead:      13 positions{angstrom}  cell{angstrom}
       E  1.38741e+01  6.14829e+00 -4.20126e+01
       E -6.70546e+01  3.38419e+01 -4.02762e+01
       E  4.42100e+00 -2.19020e+01  1.67958e+01
3
# CELL(abcABC): 1322.94304  1322.94304  1322.94304    90.00000    90.00000    90.00000  Step:        4700  Bead:      13 positions{angstrom}  cell{angstrom}
       E  3.51823e+01  3.57272e+01 -3.72632e+01
       E -6.50946e+01  9.79228e+00 -3.66774e+01
       E  4.32887e+01 -4.39204e+00  1.71962e+01
3
# CELL(abcABC): 1322.94304  1322.94304  1322.94304    90.00000    90.00000    90.00000  Step:        4800  Bead:      13 positions{angstrom}  cell{angstrom}
       E  1.18647e+01  4.12502e+01 -7.25159e+00
       E -4.15449e+01  2.98414e+01 -4.12896e+01
       E  4.88761e+01  1.39003e+01 -2.00259e+01
3
# CELL(abcABC): 1322.94304  1322.94304  1322.94304    90.00000    90.00000    90.00000  Step:        4900  Bead:      13 positions{angstrom}  cell{angstrom}
       E  4.11578e+00  1.75373e+01  2.34786e+01
       E -9.07922e+00 -1.05229e+01 -3.30180e+01
       E  1.75170e+01  7.95299e+00 -5.34260e+00
3
# CELL(abcABC): 1322.94304  1322.94304  1322.94304    90.00000    90.00000    90.00000  Step:        5000  Bead:      13 positions{angstrom}  cell{angstrom}
       E -1.48560e+01 -2.22981e+01 -9.70163e+00
       E -1.16967e+01  1.51856e+01 -4.25912e+01
       E  1.38128e+01 -3.12431e+01 -1.29627e+01
3
# CELL(abcABC): 1322.94304  1322.94304  1322.94304    90.00000    90.00000    90.00000  Step:        5100  Bead:      13 positions{angstrom}  cell{angstrom}
       E -4.68448e+01 -1.76003e+01 -4.72235e+00
       E  6.00176e+00  3.74137e+01 -3.06560e+01
       E -1.03141e+00 -3.65489e+01 -1.41084e+01
3
# CELL(abcABC): 1322.94304  1322.94304  1322.94304    90.00000    90.00000    90.00000  Step:        5200  Bead:      13 positions{angstrom}  cell{angstrom}
       E -1.31641e+01  3.33102e+00  4.36907e+01
       E  2.25881e+01  6.30632e+01 -3.15858e+01
       E -8.06617e+00 -1.71906e+00  1.15747e+01
3
# CELL(abcABC): 1322.94304  1322.94304  1322.94304    90.00000    90.00000    90.00000  Step:        5300  Bead:      13 positions{angstrom}  cell{angstrom}
       E -3.24820e+01  1.62207e+01  4.49152e+01
       E -4.21213e+00  3.66855e+01 -4.42442e+01
       E -3.17923e+00  2.38526e+01  3.93652e+01
3
# CELL(abcABC): 1322.94304  1322.94304  1322.94304    90.00000    90.00000    90.00000  Step:        5400  Bead:      13 positions{angstrom}  cell{angstrom}
       E -8.09646e+00  1.73398e+01  5.26482e+01
       E  1.52574e+01  1.73218e+01 -4.29907e+01
       E -1.69031e+01  2.66139e+01  5.99668e+01
3
# CELL(abcABC): 1322.94304  1322.94304  1322.94304    90.00000    90.00000    90.00000  Step:        5500  Bead:      13 positions{angstrom}  cell{angstrom}
       E  1.14458e+01  2.17635e+01  5.67208e+01
       E -1.17040e+01 -5.87273e+00 -2.08127e+00
       E -2.73419e+01 -6.54827e+00  4.24703e+01
3
# CELL(abcABC): 1322.94304  1322.94304  1322.94304    90.00000    90.00000    90.00000  Step:        5600  Bead:      13 positions{angstrom}  cell{angstrom}
       E -3.86706e+01  3.76175e+00  2.19568e+01
       E -1.32149e+01  1.17117e+01 -2.51199e+01
       E -3.79479e+01 -4.23988e-01  1.53768e+01
3
# CELL(abcABC): 1322.94304  1322.94304  1322.94304    90.00000    90.00000    90.00000  Step:        5700  Bead:      13 positions{angstrom}  cell{angstrom}
       E  3.74582e+00 -7.51318e+00  1.65011e+01
       E -3.04126e+01  6.09229e+01 -1.09498e+01
       E -3.21177e+01  1.82432e+01  1.89326e+01
3
# CELL(abcABC): 1322.94304  1322.94304  1322.94304    90.00000    90.00000    90.00000  Step:        5800  Bead:      13 positions{angstrom}  cell{angstrom}
       E -1.76277e+01 -1.10317e+01 -1.96333e+01
       E -6.31926e+01  3.77385e+01 -1.16705e+01
       E -8.19313e+00  4.35703e+01  7.48423e+00
3
# CELL(abcABC): 1322.94304  1322.94304  1322.94304    90.00000    90.00000    90.00000  Step:        5900  Bead:      13 positions{angstrom}  cell{angstrom}
       E  1.83856e+01 -1.22739e+01 -7.14762e+00
       E -6.52567e+00  3.76646e+00  7.15357e+00
       E  2.08183e+01  6.52135e+00 -5.98090e+00
3
# CELL(abcABC): 1322.94304  1322.94304  1322.94304    90.00000    90.00000    90.00000  Step:        6000  Bead:      13 positions{angstrom}  cell{angstrom}
       E  1.51562e+01 -1.67168e+01 -6.66815e-01
       E -3.72142e+00 -1.41614e+01  2.21524e+01
       E -3.66635e+00  2.39958e+01 -1.26305e+00
3
# CELL(abcABC): 1322.94304  1322.94304  1322.94304    90.00000    90.00000    90.00000  Step:        6100  Bead:      13 positions{angstrom}  cell{angstrom}
       E -1.49751e+01 -7.87780e+01 -3.44030e+01
       E  1.14170e+01  2.35468e+01  3.21007e+01
       E -2.93029e+01  3.36965e+01 -2.12447e+00
3
# CELL(abcABC): 1322.94304  1322.94304  1322.94304    90.00000    90.00000    90.00000  Step:        6200  Bead:      13 positions{angstrom}  cell{angstrom}
       E  8.60040e+00 -1.40105e+01 -4.66149e+01
       E  6.18614e+01  3.90395e+01  7.68523e+00
       E  1.96791e+01  2.36939e+01 -1.38265e+01
3
# CELL(abcABC): 1322.94304  1322.94304  1322.94304    90.00000    90.00000    90.00000  Step:        6300  Bead:      13 positions{angstrom}  cell{angstrom}
       E -2.68816e+00 -5.78892e+01 -8.14364e+01
       E  9.21941e+01 -5.75456e+00 -1.80745e+01
       E  1.59780e+01  3.04141e+00 -4.44685e+01
3
# CELL(abcABC): 1322.94304  1322.94304  1322.94304    90.00000    90.00000    90.00000  Step:        6400  Bead:      13 positions{angstrom}  cell{angstrom}
       E  4.16230e+00 -8.28706e+01 -7.45675e+01
       E  5.60347e+01  7.75049e+00 -2.14755e+01
       E  2.99655e+01  1.87320e+01 -2.13042e+01
3
# CELL(abcABC): 1322.94304  1322.94304  1322.94304    90.00000    90.00000    90.00000  Step:        6500  Bead:      13 positions{angstrom}  cell{angstrom}
       E -2.37410e+01 -7.65033e+01 -7.93814e+01
       E  6.08034e+00 -1.40352e+01  3.72458e+00
       E  2.77803e+01 -2.03845e+01 -2.75508e+01
3
# CELL(abcABC): 1322.94304  1322.94304  1322.94304    90.00000    90.00000    90.00000  Step:        6600  Bead:      13 positions{angstrom}  cell{angstrom}
       E -3.17929e+01 -6.07533e+01 -9.00571e+01
       E  8.83204e+00 -3.12783e+01 -2.06910e+01
       E  3.79674e+01 -4.44066e+01  5.25000e+00
3
# CELL(abcABC): 1322.94304  1322.94304  1322.94304    90.00000    90.00000    90.00000  Step:        6700  Bead:      13 positions{angstrom}  cell{angstrom}
       E -2.55453e+01 -6.99443e+01 -5.94364e+01
       E  1.38657e+00 -1.04606e+01  1.22131e+01
       E  1.48045e+01  1.06110e+01 -3.08634e+01
3
# CELL(abcABC): 1322.94304  1322.94304  1322.94304    90.00000    90.00000    90.00000  Step:        6800  Bead:      13 positions{angstrom}  cell{angstrom}
       E -1.38665e+01 -1.01780e+02 -4.94552e+01
       E  3.84461e+01 -2.74627e+01  1.16077e+01
       E  4.96998e+01  3.58255e+01 -2.19445e+01
3
# CELL(abcABC): 1322.94304  1322.94304  1322.94304    90.00000    90.00000    90.00000  Step:        6900  Bead:      13 positions{angstrom}  cell{angstrom}
       E -8.86103e-01 -5.73889e+01 -5.81300e+01
       E  1.00111e+01 -2.53663e+01  8.72928e+00
       E -9.55880e+00  5.11466e+01 -3.23896e+01
3
# CELL(abcABC): 1322.94304  1322.94304  1322.94304    90.00000    90.00000    90.00000  Step:        7000  Bead:      13 positions{angstrom}  cell{angstrom}
       E  9.26834e+00 -6.78585e+01 -3.41546e+01
       E -2.21391e+00 -3.53149e+01  5.23489e+01
       E -3.09180e+00  2.15964e+01  5.40959e+00
3
# CELL(abcABC): 1322.94304  1322.94304  1322.94304    90.00000    90.00000    90.00000  Step:        7100  Bead:      13 positions{angstrom}  cell{angstrom}
       E  1.97171e+01 -6.52721e+01 -2.47693e+01
       E -2.73281e+01 -1.67578e+01  3.78638e+01
       E  2.93610e+01  7.52216e+01 -1.09876e+01
3
# CELL(abcABC): 1322.94304  1322.94304  1322.94304    90.00000    90.00000    90.00000  Step:        7200  Bead:      13 positions{angstrom}  cell{angstrom}
       E  4.55843e+01 -4.05411e+01 -1.68221e+01
       E -3.03392e+01  9.55003e-01  3.09484e+01
       E  2.83204e+01  4.34756e+01 -8.17549e+00
3
# CELL(abcABC): 1322.94304  1322.94304  1322.94304    90.00000    90.00000    90.00000  Step:        7300  Bead:      13 positions{angstrom}  cell{angstrom}
       E  8.48583e+00 -3.96280e+01 -1.93901e+01
       E  3.45513e-01  4.29923e+01  2.70106e+01
       E  1.71401e+01  4.86885e+00 -1.14851e+01
3
# CELL(abcABC): 1322.94304  1322.94304  1322.94304    90.00000    90.00000    90.00000  Step:        7400  Bead:      13 positions{angstrom}  cell{angstrom}
       E  2.36545e+01 -4.13714e+01 -8.24493e+01
       E -2.53082e+01  3.59506e+01 -9.36879e+00
       E  2.62253e+01  4.30988e+01 -2.56531e+01
3
# CELL(abcABC): 1322.94304  1322.94304  1322.94304    90.00000    90.00000    90.00000  Step:        7500  Bead:      13 positions{angstrom}  cell{angstrom}
       E  9.89051e+00 -6.66249e+01 -4.07935e+01
       E -4.93532e+00  1.50332e+00 -2.60314e+01
       E  2.96120e+01  2.32791e+01  1.86096e+01
3
# CELL(abcABC): 1322.94304  1322.94304  1322.94304    90.00000    90.00000    90.00000  Step:        7600  Bead:      13 positions{angstrom}  cell{angstrom}
       E  3.45858e+01 -4.93140e+01 -1.67815e+01
       E  1.68874e+01 -2.62953e+01 -4.31118e+01
       E  1.11982e+01  2.34985e+01  1.66134e+01
3
# CELL(abcABC): 1322.94304  1322.94304  1322.94304    90.00000    90.00000    90.00000  Step:        7700  Bead:      13 positions{angstrom}  cell{angstrom}
       E  2.77163e+01 -4.95302e+01  2.87296e+00
       E -4.50667e-02 -3.85710e+01 -7.02034e+01
       E  6.85043e+00  1.90121e+01 -2.79045e+01
3
# CELL(abcABC): 1322.94304  1322.94304  1322.94304    90.00000    90.00000    90.00000  Step:        7800  Bead:      13 positions{angstrom}  cell{angstrom}
       E  1.90353e+01 -3.98595e+01 -3.59964e+01
       E  1.32815e+01 -3.42604e+01 -5.59246e+01
       E  6.30172e+00 -1.09002e+01 -5.35872e+01
3
# CELL(abcABC): 1322.94304  1322.94304  1322.94304    90.00000    90.00000    90.00000  Step:        7900  Bead:      13 positions{angstrom}  cell{angstrom}
       E  3.58204e+01 -2.74397e+01 -2.66557e+01
       E  1.55406e+01 -9.88063e+00 -2.62126e+01
       E -1.67958e+01  8.18342e+00 -4.27016e+01
3
# CELL(abcABC): 1322.94304  1322.94304  1322.94304    90.00000    90.00000    90.00000  Step:        8000  Bead:      13 positions{angstrom}  cell{angstrom}
       E  5.32114e+01 -3.46340e+01 -3.95530e+01
       E -1.94150e+00  2.05976e+01 -2.42631e+01
       E -1.01956e+00  3.99950e+00 -3.99550e+01
3
# CELL(abcABC): 1322.94304  1322.94304  1322.94304    90.00000    90.00000    90.00000  Step:        8100  Bead:      13 positions{angstrom}  cell{angstrom}
       E  3.42266e+01  7.72854e+00 -6.88740e+01
       E  1.73224e+01  3.06738e+01  3.78619e+00
       E -2.05627e+01  6.80416e+00 -3.59803e+00
3
# CELL(abcABC): 1322.94304  1322.94304  1322.94304    90.00000    90.00000    90.00000  Step:        8200  Bead:      13 positions{angstrom}  cell{angstrom}
       E  4.27141e+01  5.11437e+01 -6.64757e+01
       E -1.50533e+01  2.23215e+01 -1.63098e+01
       E -2.35273e+01 -4.19099e+00  2.39587e+01
3
# CELL(abcABC): 1322.94304  1322.94304  1322.94304    90.00000    90.00000    90.00000  Step:        8300  Bead:      13 positions{angstrom}  cell{angstrom}
       E  4.06119e+01  3.42986e+01 -5.89831e+01
       E -5.17046e+00  6.27625e+01  1.87676e+01
       E -2.17921e+00 -5.28720e+01  7.35641e+01
3
# CELL(abcABC): 1322.94304  1322.94304  1322.94304    90.00000    90.00000    90.00000  Step:        8400  Bead:      13 positions{angstrom}  cell{angstrom}
       E -6.29966e+00 -5.43194e+00 -3.59311e+01
       E  1.17088e+01  6.20408e+01 -3.73922e+01
       E  8.75858e+00 -3.97341e+01  6.81947e+01
3
# CELL(abcABC): 1322.94304  1322.94304  1322.94304    90.00000    90.00000    90.00000  Step:        8500  Bead:      13 positions{angstrom}  cell{angstrom}
       E -1.39190e+01 -1.27431e+01 -2.72389e+01
       E  4.41625e+01  4.21752e+01 -1.88609e+01
       E  1.61013e+01 -3.68872e+01  3.85551e+01
3
# CELL(abcABC): 1322.94304  1322.94304  1322.94304    90.00000    90.00000    90.00000  Step:        8600  Bead:      13 positions{angstrom}  cell{angstrom}
       E -2.74878e+01 -1.94590e+01 -1.12071e+01
       E  2.25967e+00  2.04084e+01 -4.54076e+01
       E -5.25761e+00 -2.18444e+01  2.36253e+01
3
# CELL(abcABC): 1322.94304  1322.94304  1322.94304    90.00000    90.00000    90.00000  Step:        8700  Bead:      13 positions{angstrom}  cell{angstrom}
       E -3.62137e+01  3.01806e+00 -3.81244e+01
       E -5.54829e+00  3.64455e+01 -4.07162e+01
       E  1.17158e+00 -4.28703e+01  6.47842e+01
3
# CELL(abcABC): 1322.94304  1322.94304  1322.94304    90.00000    90.00000    90.00000  Step:        8800  Bead:      13 positions{angstrom}  cell{angstrom}
       E -4.55712e+01  2.11813e+01  2.32751e+01
       E  1.76281e+01  3.04546e+00  1.10111e+01
       E  1.43604e+01 -7.94828e+01  3.77864e+01
3
# CELL(abcABC): 1322.94304  1322.94304  1322.94304    90.00000    90.00000    90.00000  Step:        8900  Bead:      13 positions{angstrom}  cell{angstrom}
       E -3.00960e+01  4.41747e+01  2.94459e+01
       E  4.07940e+00  8.20510e+00  2.50898e+01
       E  8.04259e+00 -6.35937e+01  5.08494e+01
3
# CELL(abcABC): 1322.94304  1322.94304  1322.94304    90.00000    90.00000    90.00000  Step:        9000  Bead:      13 positions{angstrom}  cell{angstrom}
       E -2.76393e+01  3.32489e+01  2.89213e+00
       E  2.25304e+00 -1.23503e+01  5.64446e+01
       E  4.90021e+01 -2.60222e+01  2.36507e+01
3
# CELL(abcABC): 1322.94304  1322.94304  1322.94304    90.00000    90.00000    90.00000  Step:        9100  Bead:      13 positions{angstrom}  cell{angstrom}
       E  7.51661e+00  3.63098e+01  2.87319e+01
       E -3.91849e+01  1.64566e+01  8.25587e+01
       E  2.67782e+01 -1.62015e+01  4.46367e+01
3
# CELL(abcABC): 1322.94304  1322.94304  1322.94304    90.00000    90.00000    90.00000  Step:        9200  Bead:      13 positions{angstrom}  cell{angstrom}
       E  3.36562e+01  2.86373e+01  1.24107e+01
       E -3.25691e+01  4.96642e+00  5.03514e+01
       E  2.88608e+01 -5.97657e+01 -8.57674e+00
3
# CELL(abcABC): 1322.94304  1322.94304  1322.94304    90.00000    90.00000    90.00000  Step:        9300  Bead:      13 positions{angstrom}  cell{angstrom}
       E  1.05083e+01  2.08987e+01 -8.39464e+00
       E -3.55990e+01 -4.04842e+00  7.67295e+00
       E  1.98445e+00 -5.59926e+01  4.94867e+00
3
# CELL(abcABC): 1322.94304  1322.94304  1322.94304    90.00000    90.00000    90.00000  Step:        9400  Bead:      13 positions{angstrom}  cell{angstrom}
       E  3.49831e+01  8.72226e+01 -2.73693e+01
       E -2.57629e+01 -4.19348e+01  1.33741e+01
       E  4.78121e+01 -5.39879e+01 -2.39081e+01
3
# CELL(abcABC): 1322.94304  1322.94304  1322.94304    90.00000    90.00000    90.00000  Step:        9500  Bead:      13 positions{angstrom}  cell{angstrom}
       E -6.40649e+00  6.11890e+01 -5.48844e+01
       E -5.99062e+00 -5.37878e+01  2.49543e+01
       E  2.48850e+01 -1.06594e+01  1.20910e+01
3
# CELL(abcABC): 1322.94304  1322.94304  1322.94304    90.00000    90.00000    90.00000  Step:        9600  Bead:      13 positions{angstrom}  cell{angstrom}
       E  1.86760e+01  3.75119e+01 -2.97785e+01
       E  4.02429e+01 -3.49111e+01  3.18493e+01
       E  3.14701e+01 -1.90989e+01  1.59838e+01
3
# CELL(abcABC): 1322.94304  1322.94304  1322.94304    90.00000    90.00000    90.00000  Step:        9700  Bead:      13 positions{angstrom}  cell{angstrom}
       E  3.67957e+01 -3.93968e+01 -2.83259e+01
       E  6.87861e+01 -6.65732e+01  1.00927e+01
       E  3.01203e+01 -6.68638e+00  1.58194e+01
3
# CELL(abcABC): 1322.94304  1322.94304  1322.94304    90.00000    90.00000    90.00000  Step:        9800  Bead:      13 positions{angstrom}  cell{angstrom}
       E -5.25918e-01 -6.33604e+01 -5.53681e+01
       E  5.39819e+01 -7.13928e+01 -1.54461e+01
       E  2.29659e+01 -1.07003e+01  1.46189e+01
3