3
# CELL(abcABC): 1322.94304  1322.94304  1322.94304    90.00000    90.00000    90.00000  Step:           0  Bead:      10 positions{angstrom}  cell{angstrom}
       E  0.00000e+00  0.00000e+00  0.00000e+00
       E  0.00000e+00  0.00000e+00  0.00000e+00
       E  0.00000e+00  0.00000e+00  0.00000e+00
3
# CELL(abcABC): 1322.94304  1322.94304  1322.94304    90.00000    90.00000    90.00000  Step:         100  Bead:      10 positions{angstrom}  cell{angstrom}
       E -4.50549e+00  5.71136e+00 -6.35485e+00
       E -8.21650e+00  1.13704e+01 -1.76122e+01
       E -1.58824e+01 -1.74121e+00 -2.29279e+00
3
# CELL(abcABC): 1322.94304  1322.94304  1322.94304    90.00000    90.00000    90.00000  Step:         200  Bead:      10 positions{angstrom}  cell{angstrom}
       E -1.01569e+01 -5.21521e+01 -1.60807e+01
       E  2.14914e+01  6.39770e+00 -2.90151e+01
       E -3.97055e+01  6.54146e-01 -1.09203e+01
3
# CELL(abcABC): 1322.94304  1322.94304  1322.94304    90.00000    90.00000    90.00000  Step:         300  Bead:      10 positions{angstrom}  cell{angstrom}
       E -3.00120e+01 -4.50885e+00 -4.39054e+00
       E  1.16250e+01  1.28236e+01 -6.66625e+00
       E -1.79191e+01  1.79590e+01  2.07704e+01
3
# CELL(abcABC): 1322.94304  1322.94304  1322.94304    90.00000    90.00000    90.00000  Step:         400  Bead:      10 positions{angstrom}  cell{angstrom}
       E -8.70611e-01  2.46126e+01 -1.50577e+01
       E -1.28029e+01  3.81122e+01 -3.72287e-01
       E -2.87980e+00  4.62341e+00  2.37289e+01
3
# CELL(abcABC): 1322.94304  1322.94304  1322.94304    90.00000    90.00000    90.00000  Step:         500  Bead:      10 positions{angstrom}  cell{angstrom}
       E -1.11529e+01  1.71444e+01 -8.63009e+00
       E  9.78078e+00  1.03724e+01  1.92635e+01
       E -1.63821e+01  1.99241e+01  4.69960e+01
3
# CELL(abcABC): 1322.94304  1322.94304  1322.94304    90.00000    90.00000    90.00000  Step:         600  Bead:      10 positions{angstrom}  cell{angstrom}
       E -1.70292e+01  2.77789e+01 -2.60701e+01
       E -2.34077e+01 -2.66626e+00  4.48614e+01
       E  3.08781e+01  9.96267e-01  3.49154e+01
3
# CELL(abcABC): 1322.94304  1322.94304  1322.94304    90.00000    90.00000    90.00000  Step:         700  Bead:      10 positions{angstrom}  cell{angstrom}
       E -5.03670e+00  5.11394e+01 -3.91757e+01
       E  3.50166e+00  5.38695e+01  4.36706e+01
       E -1.24794e+01 -4.18724e+00  1.92190e+01
3
# CELL(abcABC): 1322.94304  1322.94304  1322.94304    90.00000    90.00000    90.00000  Step:         800  Bead:      10 positions{angstrom}  cell{angstrom}
       E -3.96801e+01  3.70632e+01  1.23413e+00
       E  9.38779e+00  5.17064e+01 -2.45588e+00
       E -6.61587e+01  1.96928e+01  5.71326e+01
3
# CELL(abcABC): 1322.94304  1322.94304  1322.94304    90.00000    90.00000    90.00000  Step:         900  Bead:      10 positions{angstrom}  cell{angstrom}
       E  1.34178e+01 -1.13900e+01  1.38430e+00
       E -1.30541e+01  1.91547e+01 -2.34448e+01
       E -3.82774e+01  1.85905e+01  8.54342e+01
3
# CELL(abcABC): 1322.94304  1322.94304  1322.94304    90.00000    90.00000    90.00000  Step:        1000  Bead:      10 positions{angstrom}  cell{angstrom}
       E -5.57696e+00  7.33485e+00 -7.56171e+00
       E -5.31456e+00 -1.75096e+01 -7.86557e+01
       E -1.08776e+01  8.10434e+00  7.88475e+01
3
# CELL(abcABC): 1322.94304  1322.94304  1322.94304    90.00000    90.00000    90.00000  Step:        1100  Bead:      10 positions{angstrom}  cell{angstrom}
       E  1.75440e+01 -3.47605e+00 -6.88062e+01
       E  8.36842e+00 -1.84315e+01 -3.40233e+01
       E -1.73921e+01  3.95255e+01  2.93682e+01
3
# CELL(abcABC): 1322.94304  1322.94304  1322.94304    90.00000    90.00000    90.00000  Step:        1200  Bead:      10 positions{angstrom}  cell{angstrom}
       E -4.92759e+00 -1.47375e+00 -9.36092e+01
       E  3.50584e+01 -3.49255e+01 -5.17672e+01
       E  4.94801e+00  5.09972e+01  5.23138e+00
3
# CELL(abcABC): 1322.94304  1322.94304  1322.94304    90.00000    90.00000    90.00000  Step:        1300  Bead:      10 positions{angstrom}  cell{angstrom}
       E -2.64555e+00  2.25781e+01 -7.70913e+01
       E  1.24164e+01 -3.18204e+01 -4.41568e+01
       E -2.25630e+01  4.00551e+01  2.98655e+01
3
# CELL(abcABC): 1322.94304  1322.94304  1322.94304    90.00000    90.00000    90.00000  Step:        1400  Bead:      10 positions{angstrom}  cell{angstrom}
       E -1.78834e+01  1.18816e+01 -8.74074e+01
       E  4.64736e+00 -7.87683e+00 -4.67468e+01
       E -6.73999e+01  4.53520e+01  4.13841e+00
3
# CELL(abcABC): 1322.94304  1322.94304  1322.94304    90.00000    90.00000    90.00000  Step:        1500  Bead:      10 positions{angstrom}  cell{angstrom}
       E -2.44833e+01  2.95407e+01 -8.21305e+01
       E -5.03175e+00  9.84146e-02 -6.14185e+00
       E -5.75322e+01  2.25729e+01  3.65275e+00
3
# CELL(abcABC): 1322.94304  1322.94304  1322.94304    90.00000    90.00000    90.00000  Step:        1600  Bead:      10 positions{angstrom}  cell{angstrom}
       E  4.73228e+01  3.73777e+01 -7.20940e+01
       E -1.92168e+01  4.87496e+01  3.79964e+01
       E -6.70728e+01  4.29691e+01 -1.67430e+01
3
# CELL(abcABC): 1322.94304  1322.94304  1322.94304    90.00000    90.00000    90.00000  Step:        1700  Bead:      10 positions{angstrom}  cell{angstrom}
       E  4.48904e+01  1.19620e+01 -3.02253e+01
       E  3.22785e+01  8.04532e+01  4.36575e+01
       E -4.58592e+01  4.21974e+01  2.12484e+00
3
# CELL(abcABC): 1322.94304  1322.94304  1322.94304    90.00000    90.00000    90.00000  Step:        1800  Bead:      10 positions{angstrom}  cell{angstrom}
       E  2.36972e-01  2.07896e+01  7.40305e+00
       E -2.85289e+01  7.44728e+01  1.88628e+01
       E -7.49806e+01  5.88620e+01  5.30396e+01
3
# CELL(abcABC): 1322.94304  1322.94304  1322.94304    90.00000    90.00000    90.00000  Step:        1900  Bead:      10 positions{angstrom}  cell{angstrom}
       E -4.75358e+01  1.85107e+01  4.95150e+01
       E -7.44634e+01  2.93063e+01  4.54297e+01
       E -7.95032e+01  3.87291e+01  2.06996e+01
3
# CELL(abcABC): 1322.94304  1322.94304  1322.94304    90.00000    90.00000    90.00000  Step:        2000  Bead:      10 positions{angstrom}  cell{angstrom}
       E -2.57837e+01  9.03008e+00  5.32511e+01
       E -4.26000e+01  3.57713e+01  2.93451e+01
       E -1.15569e+02  3.45251e+01 -1.79418e+01
3
# CELL(abcABC): 1322.94304  1322.94304  1322.94304    90.00000    90.00000    90.00000  Step:        2100  Bead:      10 positions{angstrom}  cell{angstrom}
       E -1.56856e+01 -3.54001e+01  6.73875e+01
       E -4.29497e+01  2.57218e+01 -1.03955e+01
       E -7.00454e+01  4.08895e+01 -6.72412e+00
3
# CELL(abcABC): 1322.94304  1322.94304  1322.94304    90.00000    90.00000    90.00000  Step:        2200  Bead:      10 positions{angstrom}  cell{angstrom}
       E -3.62816e+01 -4.16518e+01  7.21173e+01
       E -3.25328e+01  3.05708e+01 -4.29066e+01
       E -3.95414e+01  7.71960e+01 -1.45089e+01
3
# CELL(abcABC): 1322.94304  1322.94304  1322.94304    90.00000    90.00000    90.00000  Step:        2300  Bead:      10 positions{angstrom}  cell{angstrom}
       E -1.75963e+01 -9.10491e+01  7.21662e+01
       E -1.88797e+01  3.42998e+00 -1.91293e+01
       E -4.47738e+01  4.24410e+01  1.97980e+01
3
# CELL(abcABC): 1322.94304  1322.94304  1322.94304    90.00000    90.00000    90.00000  Step:        2400  Bead:      10 positions{angstrom}  cell{angstrom}
       E -8.94676e+00 -6.67473e+01  2.76420e+01
       E  4.50842e+00 -1.06899e+01 -1.44805e+01
       E -4.19588e+00  2.46959e+01  3.80233e+01
3
# CELL(abcABC): 1322.94304  1322.94304  1322.94304    90.00000    90.00000    90.00000  Step:        2500  Bead:      10 positions{angstrom}  cell{angstrom}
       E  1.05540e+01 -3.52660e+01  4.53843e+01
       E -2.61879e+00 -8.45236e+00 -4.33376e+01
       E  9.68347e+00  9.30655e+00  3.49916e+01
3
# CELL(abcABC): 1322.94304  1322.94304  1322.94304    90.00000    90.00000    90.00000  Step:        2600  Bead:      10 positions{angstrom}  cell{angstrom}
       E  1.39478e-01 -1.05599e+01  3.29450e+01
       E -5.44496e+01 -3.35188e+01 -7.66791e+01
       E -6.71288e+00 -1.24038e+01  4.36758e+01
3
# CELL(abcABC): 1322.94304  1322.94304  1322.94304    90.00000    90.00000    90.00000  Step:        2700  Bead:      10 positions{angstrom}  cell{angstrom}
       E -1.30135e+01 -1.47807e+01  5.21952e+01
       E -6.09806e+01 -2.96133e+01 -2.82294e+01
       E -7.96288e+00 -3.05420e+01  1.69894e+01
3
# CELL(abcABC): 1322.94304  1322.94304  1322.94304    90.00000    90.00000    90.00000  Step:        2800  Bead:      10 positions{angstrom}  cell{angstrom}
       E -5.32188e+01 -3.79345e+01  9.10561e+00
       E -5.04132e+01 -6.59049e+01 -2.69681e+00
       E  7.46283e+00 -1.08400e+01  4.88488e+01
3
# CELL(abcABC): 1322.94304  1322.94304  1322.94304    90.00000    90.00000    90.00000  Step:        2900  Bead:      10 positions{angstrom}  cell{angstrom}
       E -3.89995e+01 -5.10931e+01 -5.57135e+00
       E -3.00314e+01 -6.42956e+01  2.45458e+00
       E  6.96055e+00  3.69723e+01  8.07679e-01
3
# CELL(abcABC): 1322.94304  1322.94304  1322.94304    90.00000    90.00000    90.00000  Step:        3000  Bead:      10 positions{angstrom}  cell{angstrom}
       E -3.11566e+01 -4.03196e+01  1.32993e+01
       E -4.53386e+00 -7.52605e+01  3.90912e+01
       E  3.15965e+01  3.52330e+01 -6.15126e+00
3
# CELL(abcABC): 1322.94304  1322.94304  1322.94304    90.00000    90.00000    90.00000  Step:        3100  Bead:      10 positions{angstrom}  cell{angstrom}
       E -3.83577e+01 -1.77740e+01  3.22028e+01
       E -1.75067e+01 -4.61025e+01  4.31075e+01
       E -8.42773e+00  4.02778e+01  2.78017e+00
3
# CELL(abcABC): 1322.94304  1322.94304  1322.94304    90.00000    90.00000    90.00000  Step:        3200  Bead:      10 positions{angstrom}  cell{angstrom}
       E -3.81235e+01 -1.49487e+01  3.36779e+01
       E -5.43597e+01 -1.73778e+01  7.57559e+01
       E  3.48910e+00  7.74354e+01  9.29884e+00
3
# CELL(abcABC): 1322.94304  1322.94304  1322.94304    90.00000    90.00000    90.00000  Step:        3300  Bead:      10 positions{angstrom}  cell{angstrom}
       E -4.28103e+01 -5.06234e+01  3.54890e+01
       E -4.96562e+01 -3.28358e+01  6.30574e+01
       E -2.25082e+01  3.97498e+01  3.97547e+01
3
# CELL(abcABC): 1322.94304  1322.94304  1322.94304    90.00000    90.00000    90.00000  Step:        3400  Bead:      10 positions{angstrom}  cell{angstrom}
       E -4.71682e+01 -8.18280e+00  3.75701e+00
       E -6.14343e+00 -2.31284e+01  7.20064e+01
       E -5.70949e+01  4.89446e+01  6.68422e+01
3
# CELL(abcABC): 1322.94304  1322.94304  1322.94304    90.00000    90.00000    90.00000  Step:        3500  Bead:      10 positions{angstrom}  cell{angstrom}
       E -6.08030e+01 -1.73099e+01  3.45554e+01
       E  3.52092e+01 -1.80636e+01  4.08656e+01
       E -3.68361e+01  5.24899e+01  7.69301e+01
3
# CELL(abcABC): 1322.94304  1322.94304  1322.94304    90.00000    90.00000    90.00000  Step:        3600  Bead:      10 positions{angstrom}  cell{angstrom}
       E -8.16096e+01 -6.06627e+00  1.91655e+01
       E  1.45803e+01 -1.68704e+01  1.22740e+01
       E -6.46264e+01  3.90233e+01  1.64798e+01
3
# CELL(abcABC): 1322.94304  1322.94304  1322.94304    90.00000    90.00000    90.00000  Step:        3700  Bead:      10 positions{angstrom}  cell{angstrom}
       E -9.04183e+01 -2.51019e+01  9.10773e+00
       E  1.70495e+00  1.24844e+01  9.61873e+00
       E -1.72323e+01  1.50491e+01  9.13705e+00
3
# CELL(abcABC): 1322.94304  1322.94304  1322.94304    90.00000    90.00000    90.00000  Step:        3800  Bead:      10 positions{angstrom}  cell{angstrom}
       E -9.42983e+01 -1.17534e+01 -1.99258e+01
       E -2.84241e+01 -1.37414e+01 -2.56391e+01
       E -3.37667e+01  5.39138e+00 -5.14298e+00
3
# CELL(abcABC): 1322.94304  1322.94304  1322.94304    90.00000    90.00000    90.00000  Step:        3900  Bead:      10 positions{angstrom}  cell{angstrom}
       E -5.97724e+01  6.34707e+00 -3.31218e+01
       E -7.91189e+00 -1.50878e+01 -2.64155e+01
       E -3.66026e+00  1.51390e+01 -3.85816e+01
3
# CELL(abcABC): 1322.94304  1322.94304  1322.94304    90.00000    90.00000    90.00000  Step:        4000  Bead:      10 positions{angstrom}  cell{angstrom}
       E -8.52153e+01  2.01822e+01 -4.88161e+01
       E -7.00032e+01  2.14965e+01  2.00198e+01
       E -4.63638e+01  1.10420e+01 -3.89645e+00
3
# CELL(abcABC): 1322.94304  1322.94304  1322.94304    90.00000    90.00000    90.00000  Step:        4100  Bead:      10 positions{angstrom}  cell{angstrom}
       E -7.04627e+01  3.71556e+01 -5.07221e+01
       E -4.69765e+01  3.29458e+01  4.83193e+01
       E -3.82564e+01  3.37452e+01  6.77445e+01
3
# CELL(abcABC): 1322.94304  1322.94304  1322.94304    90.00000    90.00000    90.00000  Step:        4200  Bead:      10 positions{angstrom}  cell{angstrom}
       E -3.62790e+01  2.78224e+01 -5.01490e+01
       E -5.84500e+01  6.35187e+00  1.76074e+01
       E -1.77152e+01  5.73632e+01  7.12909e+01
3
# CELL(abcABC): 1322.94304  1322.94304  1322.94304    90.00000    90.00000    90.00000  Step:        4300  Bead:      10 positions{angstrom}  cell{angstrom}
       E -2.72374e+01  2.96526e+01 -5.74337e+01
       E -9.38369e+01  1.93079e+01  2.94925e+01
       E -2.74379e+01  5.43722e+01  1.16009e+01
3
# CELL(abcABC): 1322.94304  1322.94304  1322.94304    90.00000    90.00000    90.00000  Step:        4400  Bead:      10 positions{angstrom}  cell{angstrom}
       E -3.44314e+01 -4.04440e+00 -5.16453e+01
       E -9.16148e+01  8.61984e+01 -6.90406e+00
       E -7.14145e+01  1.97002e+01  7.67080e+00
3
# CELL(abcABC): 1322.94304  1322.94304  1322.94304    90.00000    90.00000    90.00000  Step:        4500  Bead:      10 positions{angstrom}  cell{angstrom}
       E -4.63345e+01  3.28335e+00 -4.99729e+01
       E -6.75020e+01  5.50339e+01 -3.48054e+01
       E -2.68929e+01  3.16261e+00  6.04221e+00
3
# CELL(abcABC): 1322.94304  1322.94304  1322.94304    90.00000    90.00000    90.00000  Step:        4600  Bead:      10 positions{angstrom}  cell{angstrom}
       E  1.92752e+01  2.70211e+01 -2.09437e+01
       E -4.94300e+01  7.30883e+00 -5.61078e+01
       E  9.16978e+00  4.45541e+00  3.17016e+01
3
# CELL(abcABC): 1322.94304  1322.94304  1322.94304    90.00000    90.00000    90.00000  Step:        4700  Bead:      10 positions{angstrom}  cell{angstrom}
       E  3.25710e+01  4.77593e+01 -2.28459e+01
       E -3.13578e+01  3.46682e+01 -6.16268e+01
       E  5.44379e+01  1.32234e+01 -1.91329e+00
3
# CELL(abcABC): 1322.94304  1322.94304  1322.94304    90.00000    90.00000    90.00000  Step:        4800  Bead:      10 positions{angstrom}  cell{angstrom}
       E  2.97118e+01  8.35796e+01 -9.44523e+00
       E -6.02507e+01  2.83439e+01 -2.89832e+01
       E  1.80515e+01  4.01200e+01 -2.62707e+01
3
# CELL(abcABC): 1322.94304  1322.94304  1322.94304    90.00000    90.00000    90.00000  Step:        4900  Bead:      10 positions{angstrom}  cell{angstrom}
       E  1.85234e+01  1.69701e+01 -5.73909e+00
       E -4.98645e+01 -1.12962e+01 -4.37153e+01
       E  9.40207e+00  9.37889e+00 -2.46730e+01
3
# CELL(abcABC): 1322.94304  1322.94304  1322.94304    90.00000    90.00000    90.00000  Step:        5000  Bead:      10 positions{angstrom}  cell{angstrom}
       E -1.19016e+01 -5.87088e+00  1.79933e+01
       E -1.61742e+01  2.14703e+01 -6.37661e+01
       E  3.81662e-01 -2.18274e+01 -1.91696e+01
3
# CELL(abcABC): 1322.94304  1322.94304  1322.94304    90.00000    90.00000    90.00000  Step:        5100  Bead:      10 positions{angstrom}  cell{angstrom}
       E -1.34169e+01 -1.98077e+01  6.26136e+01
       E -9.73814e-01  1.46588e+01 -3.27041e+01
       E  3.02175e-01 -1.00092e+01  4.99728e+00
3
# CELL(abcABC): 1322.94304  1322.94304  1322.94304    90.00000    90.00000    90.00000  Step:        5200  Bead:      10 positions{angstrom}  cell{angstrom}
       E -1.72946e+01 -2.57232e+01  2.83406e+01
       E  2.08317e+00  5.13701e+01 -3.26875e+01
       E  9.79831e+00 -5.49660e+00  2.05114e+01
3
# CELL(abcABC): 1322.94304  1322.94304  1322.94304    90.00000    90.00000    90.00000  Step:        5300  Bead:      10 positions{angstrom}  cell{angstrom}
       E -6.42024e+00  4.00006e+01  4.13151e+01
       E  1.47245e+01  4.32384e+01 -3.26651e+01
       E  3.17126e+01  5.17346e+01  4.10240e+01
3
# CELL(abcABC): 1322.94304  1322.94304  1322.94304    90.00000    90.00000    90.00000  Step:        5400  Bead:      10 positions{angstrom}  cell{angstrom}
       E -9.86987e+00  2.37786e+01  3.55599e+01
       E  5.50777e+00  3.93750e+01 -5.97260e+01
       E -9.08170e+00  2.07218e+01  4.49177e+01
3
# CELL(abcABC): 1322.94304  1322.94304  1322.94304    90.00000    90.00000    90.00000  Step:        5500  Bead:      10 positions{angstrom}  cell{angstrom}
       E -1.83500e+01  3.92800e+01  6.27742e+01
       E -3.86879e+01  1.96639e+01 -4.63182e+01
       E -2.47063e+01 -7.91338e+00  4.15329e+00
3
# CELL(abcABC): 1322.94304  1322.94304  1322.94304    90.00000    90.00000    90.00000  Step:        5600  Bead:      10 positions{angstrom}  cell{angstrom}
       E -3.16256e+01  8.77825e+00  3.93527e+01
       E -4.10010e+01  1.76526e+01 -3.45508e+01
       E -2.17333e+01 -3.61336e+00 -2.20542e+00
3
# CELL(abcABC): 1322.94304  1322.94304  1322.94304    90.00000    90.00000    90.00000  Step:        5700  Bead:      10 positions{angstrom}  cell{angstrom}
       E -2.50847e+01  3.11279e+01 -1.12369e+00
       E -2.97478e+01  4.18491e+01 -2.52936e+01
       E -3.99597e+00 -6.21291e+00  2.51764e+01
3
# CELL(abcABC): 1322.94304  1322.94304  1322.94304    90.00000    90.00000    90.00000  Step:        5800  Bead:      10 positions{angstrom}  cell{angstrom}
       E  3.94425e+00 -3.01971e-01 -2.56934e+00
       E -5.20383e+01  3.00118e+01 -1.87767e+01
       E  1.15716e+01  2.76964e+01 -5.39569e-01
3
# CELL(abcABC): 1322.94304  1322.94304  1322.94304    90.00000    90.00000    90.00000  Step:        5900  Bead:      10 positions{angstrom}  cell{angstrom}
       E  4.73782e+00 -4.26037e+01  1.32562e+00
       E -3.13545e+01  2.53675e+01 -3.93612e+01
       E  6.49869e+00  2.29406e+01  1.09014e+01
3
# CELL(abcABC): 1322.94304  1322.94304  1322.94304    90.00000    90.00000    90.00000  Step:        6000  Bead:      10 positions{angstrom}  cell{angstrom}
       E  3.72387e+01 -5.16538e+01 -8.87447e+00
       E -3.80714e+01  1.02337e+01 -1.04699e+01
       E  1.47557e+01  2.15964e+01  3.04301e+01
3
# CELL(abcABC): 1322.94304  1322.94304  1322.94304    90.00000    90.00000    90.00000  Step:        6100  Bead:      10 positions{angstrom}  cell{angstrom}
       E  2.58361e+01 -8.44757e+01 -4.48435e+01
       E  1.95436e+01 -1.24703e+01  3.98638e+01
       E -6.25428e+00  1.02019e+01 -2.12865e+01
3
# CELL(abcABC): 1322.94304  1322.94304  1322.94304    90.00000    90.00000    90.00000  Step:        6200  Bead:      10 positions{angstrom}  cell{angstrom}
       E  3.82127e+00 -5.88580e+01 -6.56757e+01
       E  6.17340e+01  2.74460e+01 -3.42141e+00
       E  3.77629e+01  1.83816e+01 -7.91080e+00
3
# CELL(abcABC): 1322.94304  1322.94304  1322.94304    90.00000    90.00000    90.00000  Step:        6300  Bead:      10 positions{angstrom}  cell{angstrom}
       E  2.26352e+01 -5.45828e+01 -6.97281e+01
       E  7.76813e+01 -2.33892e+01 -3.78037e+01
       E  3.84138e+01  1.18674e+01 -3.84630e+01
3
# CELL(abcABC): 1322.94304  1322.94304  1322.94304    90.00000    90.00000    90.00000  Step:        6400  Bead:      10 positions{angstrom}  cell{angstrom}
       E  2.72937e+01 -7.67133e+01 -5.74265e+01
       E  9.78642e+01 -1.81978e+01 -2.93542e+01
       E  2.10034e+00  2.92815e+00 -2.57968e+00
3
# CELL(abcABC): 1322.94304  1322.94304  1322.94304    90.00000    90.00000    90.00000  Step:        6500  Bead:      10 positions{angstrom}  cell{angstrom}
       E -1.19107e+01 -9.87151e+01 -8.97012e+01
       E  3.55252e+01 -3.61646e+01 -3.08690e+01
       E  2.02010e+01 -3.40665e+01  2.19522e+01
3
# CELL(abcABC): 1322.94304  1322.94304  1322.94304    90.00000    90.00000    90.00000  Step:        6600  Bead:      10 positions{angstrom}  cell{angstrom}
       E -2.89598e+01 -9.60779e+01 -8.58135e+01
       E  4.55756e+01 -4.95882e+01  3.95953e+01
       E  3.11936e+01 -1.53706e+00  3.46851e+00
3
# CELL(abcABC): 1322.94304  1322.94304  1322.94304    90.00000    90.00000    90.00000  Step:        6700  Bead:      10 positions{angstrom}  cell{angstrom}
       E -6.89427e+00 -6.68762e+01 -9.14852e+01
       E  2.61955e+01 -5.17821e+01  9.14466e+00
       E  5.67010e+00  2.10997e+01 -2.35818e+01
3
# CELL(abcABC): 1322.94304  1322.94304  1322.94304    90.00000    90.00000    90.00000  Step:        6800  Bead:      10 positions{angstrom}  cell{angstrom}
       E  5.06281e+00 -4.84575e+01 -4.28407e+01
       E  4.56408e+01 -1.54172e+01  1.21134e+01
       E  2.14965e+01  5.89879e+01 -2.00492e+01
3
# CELL(abcABC): 1322.94304  1322.94304  1322.94304    90.00000    90.00000    90.00000  Step:        6900  Bead:      10 positions{angstrom}  cell{angstrom}
       E -1.59987e+01 -5.46813e+01 -5.36964e+01
       E -1.15639e-01 -4.19600e+01 -1.07238e+01
       E  2.63622e+01  5.61270e+01 -6.74705e+00
3
# CELL(abcABC): 1322.94304  1322.94304  1322.94304    90.00000    90.00000    90.00000  Step:        7000  Bead:      10 positions{angstrom}  cell{angstrom}
       E -3.53825e+01 -4.25063e+01 -3.44716e+01
       E -1.05465e+01 -2.98039e+01  2.23230e+01
       E  2.85408e+01  4.46717e+01  1.73547e+01
3
# CELL(abcABC): 1322.94304  1322.94304  1322.94304    90.00000    90.00000    90.00000  Step:        7100  Bead:      10 positions{angstrom}  cell{angstrom}
       E -9.18341e+00 -2.44537e+01 -1.97909e+01
       E -1.59615e+01 -3.42878e+01  5.08478e+01
       E  2.84367e+00  6.86999e+01  4.11039e+01
3
# CELL(abcABC): 1322.94304  1322.94304  1322.94304    90.00000    90.00000    90.00000  Step:        7200  Bead:      10 positions{angstrom}  cell{angstrom}
       E  2.37510e+00 -3.08742e+01 -5.09355e+00
       E -4.00221e+01 -1.30755e+01  3.14819e+01
       E  3.28751e+01  5.78287e+01  5.19958e+00
3
# CELL(abcABC): 1322.94304  1322.94304  1322.94304    90.00000    90.00000    90.00000  Step:        7300  Bead:      10 positions{angstrom}  cell{angstrom}
       E -2.56322e+01 -3.27537e+01 -3.75333e+01
       E  1.21967e+01  6.15919e+01  4.18595e+01
       E  4.93070e+01  4.41172e+01  1.01508e+00
3
# CELL(abcABC): 1322.94304  1322.94304  1322.94304    90.00000    90.00000    90.00000  Step:        7400  Bead:      10 positions{angstrom}  cell{angstrom}
       E -5.62790e+00 -4.41524e+01 -3.43592e+01
       E  3.07682e+01  5.61502e+01  3.30225e+00
       E  3.64115e+01  6.50817e+01  4.61746e+00
3
# CELL(abcABC): 1322.94304  1322.94304  1322.94304    90.00000    90.00000    90.00000  Step:        7500  Bead:      10 positions{angstrom}  cell{angstrom}
       E -2.83579e+01 -7.25908e+01 -4.90500e+01
       E  5.74872e+00 -1.42541e+01 -2.16700e+01
       E  3.48154e+01  4.39276e+01  6.73457e-01
3
# CELL(abcABC): 1322.94304  1322.94304  1322.94304    90.00000    90.00000    90.00000  Step:        7600  Bead:      10 positions{angstrom}  cell{angstrom}
       E  1.18005e+01 -8.04354e+01 -2.74292e+01
       E  1.11108e+01 -5.42221e+01 -5.09136e+01
       E  3.78798e+01  2.19330e+01  3.69571e+00
3
# CELL(abcABC): 1322.94304  1322.94304  1322.94304    90.00000    90.00000    90.00000  Step:        7700  Bead:      10 positions{angstrom}  cell{angstrom}
       E  2.58466e+01 -3.89129e+01 -1.88000e+01
       E  2.11632e+01 -6.39896e+01 -4.82695e+01
       E -1.00164e+01  1.14745e+01 -2.25729e+01
3
# CELL(abcABC): 1322.94304  1322.94304  1322.94304    90.00000    90.00000    90.00000  Step:        7800  Bead:      10 positions{angstrom}  cell{angstrom}
       E  2.22168e+01 -2.44444e+01 -2.40583e+01
       E -7.24799e+00 -6.43136e+01 -4.40615e+01
       E  1.73578e+01 -1.17172e+01 -7.36303e+01
3
# CELL(abcABC): 1322.94304  1322.94304  1322.94304    90.00000    90.00000    90.00000  Step:        7900  Bead:      10 positions{angstrom}  cell{angstrom}
       E  3.83756e+01 -2.03587e+01 -3.29709e+01
       E -1.11947e+00 -2.87851e+01 -3.52335e+01
       E -9.19067e+00  2.00402e+01 -5.66459e+01
3
# CELL(abcABC): 1322.94304  1322.94304  1322.94304    90.00000    90.00000    90.00000  Step:        8000  Bead:      10 positions{angstrom}  cell{angstrom}
       E  2.22284e+01 -1.60065e+01 -3.41443e+01
       E  1.42436e+01 -2.32105e+01 -2.36613e+01
       E -2.16743e+01  4.47020e+01 -2.92839e+01
3
# CELL(abcABC): 1322.94304  1322.94304  1322.94304    90.00000    90.00000    90.00000  Step:        8100  Bead:      10 positions{angstrom}  cell{angstrom}
       E  6.43560e+01  2.08645e+00 -5.87477e+01
       E  3.27622e+01  7.87597e+00 -6.41231e+00
       E -1.23101e+01  6.57800e+00  4.51835e+00
3
# CELL(abcABC): 1322.94304  1322.94304  1322.94304    90.00000    90.00000    90.00000  Step:        8200  Bead:      10 positions{angstrom}  cell{angstrom}
       E  2.74555e+01  2.81353e+01 -7.73604e+01
       E -1.51346e+01  6.98542e+00  1.87920e+01
       E -7.39246e+00 -2.54352e+01  2.67483e+00
3
# CELL(abcABC): 1322.94304  1322.94304  1322.94304    90.00000    90.00000    90.00000  Step:        8300  Bead:      10 positions{angstrom}  cell{angstrom}
       E  3.42583e+01  2.60542e+01 -5.94326e+01
       E -5.42212e+00  5.20893e+01  5.06799e+00
       E  2.28542e+01 -5.42432e+01  5.26640e+01
3
# CELL(abcABC): 1322.94304  1322.94304  1322.94304    90.00000    90.00000    90.00000  Step:        8400  Bead:      10 positions{angstrom}  cell{angstrom}
       E  1.00705e+01  1.67412e+01 -3.43375e+01
       E  3.57597e+01  5.28187e+01  2.97176e+01
       E  1.08380e+01 -7.09349e+01  6.35550e+01
3
# CELL(abcABC): 1322.94304  1322.94304  1322.94304    90.00000    90.00000    90.00000  Step:        8500  Bead:      10 positions{angstrom}  cell{angstrom}
       E -5.63697e+01 -9.32959e+00 -3.05042e+01
       E  3.24372e+01  2.02462e+01  9.31297e+00
       E  1.52318e+01 -2.99678e+01  4.31538e+01
3
# CELL(abcABC): 1322.94304  1322.94304  1322.94304    90.00000    90.00000    90.00000  Step:        8600  Bead:      10 positions{angstrom}  cell{angstrom}
       E -6.01457e+01  1.39156e+01 -1.50615e+01
       E  1.69920e+01  2.81427e+01 -5.18978e+01
       E  1.35564e+01 -1.81866e+01  2.36007e+01
3
# CELL(abcABC): 1322.94304  1322.94304  1322.94304    90.00000    90.00000    90.00000  Step:        8700  Bead:      10 positions{angstrom}  cell{angstrom}
       E -2.76393e+01  3.31267e+01  4.09823e-01
       E  7.15207e-01  1.91582e+01 -9.87480e+00
       E  2.75910e+00 -3.53910e+01  2.55410e+01
3
# CELL(abcABC): 1322.94304  1322.94304  1322.94304    90.00000    90.00000    90.00000  Step:        8800  Bead:      10 positions{angstrom}  cell{angstrom}
       E -1.01396e+01  4.06246e+01  2.43139e+01
       E  1.48334e+01  2.78710e+00  3.23394e+00
       E  2.29104e+01 -6.21294e+01  5.35519e+01
3
# CELL(abcABC): 1322.94304  1322.94304  1322.94304    90.00000    90.00000    90.00000  Step:        8900  Bead:      10 positions{angstrom}  cell{angstrom}
       E -2.94010e+01 -2.78861e+01  2.36904e+01
       E  9.94936e+00 -3.78767e+01  5.24574e+01
       E  1.06664e+00 -7.26822e+01  5.82341e+01
3
# CELL(abcABC): 1322.94304  1322.94304  1322.94304    90.00000    90.00000    90.00000  Step:        9000  Bead:      10 positions{angstrom}  cell{angstrom}
       E -9.82378e+00  1.27543e+01  1.80935e+01
       E -6.31606e+00  3.33046e+00  4.28061e+01
       E  3.08589e+01 -4.43318e+01  7.57199e+00
3
# CELL(abcABC): 1322.94304  1322.94304  1322.94304    90.00000    90.00000    90.00000  Step:        9100  Bead:      10 positions{angstrom}  cell{angstrom}
       E  5.69845e+00  2.49083e+01 -8.16225e+00
       E -3.91124e+01 -9.50816e+00  5.05019e+01
       E  8.71502e+00 -9.97053e+00  3.00410e+01
3
# CELL(abcABC): 1322.94304  1322.94304  1322.94304    90.00000    90.00000    90.00000  Step:        9200  Bead:      10 positions{angstrom}  cell{angstrom}
       E -3.15781e+00  3.61874e+01  8.38535e+00
       E  1.12184e+01  1.22809e+01  4.60662e+01
       E -2.73630e+00 -7.78363e+01  2.86552e+01
3
# CELL(abcABC): 1322.94304  1322.94304  1322.94304    90.00000    90.00000    90.00000  Step:        9300  Bead:      10 positions{angstrom}  cell{angstrom}
       E  2.06735e+01  4.76273e+01 -2.37577e+01
       E -9.52709e+00 -7.32357e+00  9.86210e+00
       E  2.73283e+01 -5.87257e+01  9.25643e+00
3
# CELL(abcABC): 1322.94304  1322.94304  1322.94304    90.00000    90.00000    90.00000  Step:        9400  Bead:      10 positions{angstrom}  cell{angstrom}
       E  3.53641e+01  6.41736e+01 -5.60938e+01
       E -1.84066e+01 -4.27656e+01  3.53270e+01
       E  4.17031e+01 -5.20747e+01  2.80760e+01
3
# CELL(abcABC): 1322.94304  1322.94304  1322.94304    90.00000    90.00000    90.00000  Step:        9500  Bead:      10 positions{angstrom}  cell{angstrom}
       E  1.39341e+01  6.94991e+01 -5.20845e+01
       E -1.13373e+01 -4.99957e+01  3.77672e+01
       E  4.67206e+01 -4.12252e+01 -8.26878e+00
3
# CELL(abcABC): 1322.94304  1322.94304  1322.94304    90.00000    90.00000    90.00000  Step:        9600  Bead:      10 positions{angstrom}  cell{angstrom}
       E  2.77235e+01  4.90531e+01 -2.63698e+01
       E  4.96496e+01 -4.87486e+01  4.02693e+01
       E  1.50542e+01 -2.65153e+01 -1.24448e+00
3
# CELL(abcABC): 1322.94304  1322.94304  1322.94304    90.00000    90.00000    90.00000  Step:        9700  Bead:      10 positions{angstrom}  cell{angstrom}
       E  1.21778e+01 -1.92893e+01 -6.91180e+01
       E  6.87026e+01 -5.94983e+01  2.08460e+01
       E  2.05877e+01 -2.90582e+01  8.01720e+00
3
# CELL(abcABC): 1322.94304  1322.94304  1322.94304    90.00000    90.00000    90.00000  Step:        9800  Bead:      10 positions{angstrom}  cell{angstrom}
       E -1.64299e+01 -5.58918e+01 -7.85236e+01
       E  2.19449e+01 -7.75632e+01 -1.11708e+01
       E  2.83038e+01 -3.12585e+01  6.19823e-01
3