3
# CELL(abcABC): 1322.94304  1322.94304  1322.94304    90.00000    90.00000    90.00000  Step:           0  Bead:      24 positions{angstrom}  cell{angstrom}
       E  0.00000e+00  0.00000e+00  0.00000e+00
       E  0.00000e+00  0.00000e+00  0.00000e+00
       E  0.00000e+00  0.00000e+00  0.00000e+00
3
# CELL(abcABC): 1322.94304  1322.94304  1322.94304    90.00000    90.00000    90.00000  Step:         100  Bead:      24 positions{angstrom}  cell{angstrom}
       E  2.68888e+01 -1.54657e+01 -3.79452e+00
       E  1.51644e+00 -4.67380e+01 -7.91531e+00
       E -1.17388e+01  1.07721e+01 -3.41058e-01
3
# CELL(abcABC): 1322.94304  1322.94304  1322.94304    90.00000    90.00000    90.00000  Step:         200  Bead:      24 positions{angstrom}  cell{angstrom}
       E -2.00856e+01 -1.06468e+01  3.58059e+01
       E -1.18465e+01 -7.84989e+01  7.36897e+00
       E  2.67880e+01  5.30768e+01 -4.84945e-01
3
# CELL(abcABC): 1322.94304  1322.94304  1322.94304    90.00000    90.00000    90.00000  Step:         300  Bead:      24 positions{angstrom}  cell{angstrom}
       E  1.62186e+01 -1.17348e+01  4.11111e+01
       E -1.99073e+01 -2.15117e+01  2.16037e+01
       E  2.16346e+01  7.37707e+00 -5.73309e+00
3
# CELL(abcABC): 1322.94304  1322.94304  1322.94304    90.00000    90.00000    90.00000  Step:         400  Bead:      24 positions{angstrom}  cell{angstrom}
       E  1.63489e+01  1.18501e+00 -7.84389e+00
       E -5.04834e+00 -4.16730e+01 -1.15806e+01
       E  3.40417e+01 -5.42823e+00 -9.48870e+00
3
# CELL(abcABC): 1322.94304  1322.94304  1322.94304    90.00000    90.00000    90.00000  Step:         500  Bead:      24 positions{angstrom}  cell{angstrom}
       E  2.55729e+01 -2.57838e+01 -4.80730e+01
       E -1.74597e+00 -6.31830e-01  2.95522e+01
       E  2.81162e+01  3.36881e+00  2.16647e+01
3
# CELL(abcABC): 1322.94304  1322.94304  1322.94304    90.00000    90.00000    90.00000  Step:         600  Bead:      24 positions{angstrom}  cell{angstrom}
       E  4.26870e+01 -4.09033e+00 -8.84217e+00
       E -7.89101e+00 -1.21894e+01  3.64519e+01
       E  1.07511e+01  3.21933e+01 -8.08683e+00
3
# CELL(abcABC): 1322.94304  1322.94304  1322.94304    90.00000    90.00000    90.00000  Step:         700  Bead:      24 positions{angstrom}  cell{angstrom}
       E  3.07321e+01 -1.75446e+01  1.28124e+01
       E  1.20563e+01 -2.11109e+01  2.27400e+01
       E -1.34302e+01 -5.25560e+00  3.82818e+01
3
# CELL(abcABC): 1322.94304  1322.94304  1322.94304    90.00000    90.00000    90.00000  Step:         800  Bead:      24 positions{angstrom}  cell{angstrom}
       E  3.50754e+01 -5.49186e+00  1.51284e+01
       E  1.82337e+01  1.62151e+01  2.04880e+01
       E -4.78799e+01  1.55197e+00  1.33687e+01
3
# CELL(abcABC): 1322.94304  1322.94304  1322.94304    90.00000    90.00000    90.00000  Step:         900  Bead:      24 positions{angstrom}  cell{angstrom}
       E  3.15599e+01  1.79046e+01 -1.10965e+01
       E -1.91754e+01  1.17680e+01  1.61395e+01
       E -2.64322e+01  4.16541e+00  5.39754e+01
3
# CELL(abcABC): 1322.94304  1322.94304  1322.94304    90.00000    90.00000    90.00000  Step:        1000  Bead:      24 positions{angstrom}  cell{angstrom}
       E  2.38634e+01  1.13991e+01 -2.90262e+00
       E -2.79351e+01  4.46718e+01  4.18397e+00
       E -6.63783e+00  1.30698e+01  2.65242e+01
3
# CELL(abcABC): 1322.94304  1322.94304  1322.94304    90.00000    90.00000    90.00000  Step:        1100  Bead:      24 positions{angstrom}  cell{angstrom}
       E -1.32726e+01  9.47417e+00 -4.97939e+01
       E -3.95404e+01  3.29698e+01 -6.09496e+00
       E  4.23466e+01  8.58030e+00  4.76403e+00
3
# CELL(abcABC): 1322.94304  1322.94304  1322.94304    90.00000    90.00000    90.00000  Step:        1200  Bead:      24 positions{angstrom}  cell{angstrom}
       E  1.39091e+01 -1.06173e+01 -2.72004e+01
       E -7.74240e+00  4.23487e+01 -1.12435e+01
       E  3.70156e+01  5.20675e+01 -2.53381e+01
3
# CELL(abcABC): 1322.94304  1322.94304  1322.94304    90.00000    90.00000    90.00000  Step:        1300  Bead:      24 positions{angstrom}  cell{angstrom}
       E  2.95014e+00 -7.75750e-01 -6.12743e+01
       E -1.88934e+01  2.32949e+01 -4.49339e+01
       E  1.02405e+01  1.98295e+01 -1.41820e+01
3
# CELL(abcABC): 1322.94304  1322.94304  1322.94304    90.00000    90.00000    90.00000  Step:        1400  Bead:      24 positions{angstrom}  cell{angstrom}
       E -1.75021e+01  4.59435e+01 -6.35725e+01
       E -1.95743e+01  1.91494e+01 -5.84315e+00
       E -9.24412e+00 -4.82237e+00 -1.80880e+01
3
# CELL(abcABC): 1322.94304  1322.94304  1322.94304    90.00000    90.00000    90.00000  Step:        1500  Bead:      24 positions{angstrom}  cell{angstrom}
       E  6.40776e+00  3.39357e+01 -8.25183e+01
       E -4.87549e+01  3.03650e+01 -1.28234e+01
       E  1.91576e+01 -1.32288e+01  1.14689e+01
3
# CELL(abcABC): 1322.94304  1322.94304  1322.94304    90.00000    90.00000    90.00000  Step:        1600  Bead:      24 positions{angstrom}  cell{angstrom}
       E -2.91129e+01  3.68526e+01 -6.42178e+01
       E -4.44281e+01  7.21637e+01  3.33176e+01
       E  3.14475e+01  1.02859e+01  4.75788e+00
3
# CELL(abcABC): 1322.94304  1322.94304  1322.94304    90.00000    90.00000    90.00000  Step:        1700  Bead:      24 positions{angstrom}  cell{angstrom}
       E -1.47043e+01  2.65045e+01 -1.17640e+01
       E -1.36469e+01  7.86163e+01  4.12532e+01
       E  1.34419e+01  1.74383e+01 -3.71424e+01
3
# CELL(abcABC): 1322.94304  1322.94304  1322.94304    90.00000    90.00000    90.00000  Step:        1800  Bead:      24 positions{angstrom}  cell{angstrom}
       E -1.82381e+01  1.26298e+01  2.98372e+01
       E -7.27485e+01  6.80068e+01  1.20589e+01
       E -3.13364e+01 -6.85881e+00 -4.60005e+00
3
# CELL(abcABC): 1322.94304  1322.94304  1322.94304    90.00000    90.00000    90.00000  Step:        1900  Bead:      24 positions{angstrom}  cell{angstrom}
       E -7.47471e-01 -1.06503e+01  3.90813e+01
       E -6.54747e+01  8.49892e+01 -2.85553e+00
       E -3.88804e+01 -1.31469e+01 -9.33353e+00
3
# CELL(abcABC): 1322.94304  1322.94304  1322.94304    90.00000    90.00000    90.00000  Step:        2000  Bead:      24 positions{angstrom}  cell{angstrom}
       E -2.62151e+01 -2.73124e+01  5.16747e+01
       E -2.97916e+01  7.42243e+01  2.31072e+00
       E -6.58502e+01  3.40221e+01  1.02010e+01
3
# CELL(abcABC): 1322.94304  1322.94304  1322.94304    90.00000    90.00000    90.00000  Step:        2100  Bead:      24 positions{angstrom}  cell{angstrom}
       E -1.45755e+01 -6.19639e+01  5.69274e+01
       E -3.28890e+01  2.64232e+01  3.61504e+01
       E -2.02376e+01  6.10753e+01  3.90601e+00
3
# CELL(abcABC): 1322.94304  1322.94304  1322.94304    90.00000    90.00000    90.00000  Step:        2200  Bead:      24 positions{angstrom}  cell{angstrom}
       E -2.92082e+01 -6.92503e+01  1.21035e+01
       E -1.89515e+01  2.38407e+01  1.23302e+01
       E -2.47029e+01 -3.28904e+00  1.66273e+01
3
# CELL(abcABC): 1322.94304  1322.94304  1322.94304    90.00000    90.00000    90.00000  Step:        2300  Bead:      24 positions{angstrom}  cell{angstrom}
       E -2.69221e+01 -7.33906e+01  9.82679e+00
       E -3.97604e+01  5.04956e+01  1.06042e+01
       E -4.69694e+01  2.06185e+00 -2.20749e+01
3
# CELL(abcABC): 1322.94304  1322.94304  1322.94304    90.00000    90.00000    90.00000  Step:        2400  Bead:      24 positions{angstrom}  cell{angstrom}
       E -2.39964e+00 -6.58582e+01 -4.92944e+00
       E -4.12760e+01  3.54065e+01 -9.99169e-01
       E -9.93825e+00 -2.52051e+01 -3.72742e+01
3
# CELL(abcABC): 1322.94304  1322.94304  1322.94304    90.00000    90.00000    90.00000  Step:        2500  Bead:      24 positions{angstrom}  cell{angstrom}
       E -3.07882e+01 -1.70100e+01  2.91916e-01
       E -3.64320e+01 -1.64021e+01 -1.35898e+01
       E  1.80581e+01 -4.33827e+01  9.63462e+00
3
# CELL(abcABC): 1322.94304  1322.94304  1322.94304    90.00000    90.00000    90.00000  Step:        2600  Bead:      24 positions{angstrom}  cell{angstrom}
       E -5.57254e+01 -2.01446e+01  4.92493e+01
       E -8.99496e+01 -1.17444e+01  6.38414e+00
       E  5.67921e+01 -5.21055e+01  4.71897e+01
3
# CELL(abcABC): 1322.94304  1322.94304  1322.94304    90.00000    90.00000    90.00000  Step:        2700  Bead:      24 positions{angstrom}  cell{angstrom}
       E -6.92671e+01 -4.60064e+01  7.75236e+01
       E -3.55570e+01 -1.08791e+01  7.51027e+00
       E  5.19547e-01 -6.34481e+01  5.24861e+01
3
# CELL(abcABC): 1322.94304  1322.94304  1322.94304    90.00000    90.00000    90.00000  Step:        2800  Bead:      24 positions{angstrom}  cell{angstrom}
       E -5.24356e+01 -5.94348e+01  1.03253e+02
       E -7.40840e+01 -2.96424e+01  1.21775e+01
       E  3.32388e+01 -5.03685e+01  1.15615e+01
3
# CELL(abcABC): 1322.94304  1322.94304  1322.94304    90.00000    90.00000    90.00000  Step:        2900  Bead:      24 positions{angstrom}  cell{angstrom}
       E -7.22946e+01 -5.79674e+01  8.35152e+01
       E -5.43900e+01 -4.75543e+01  5.10885e+01
       E  4.71355e+01 -4.19889e+01  1.87862e+01
3
# CELL(abcABC): 1322.94304  1322.94304  1322.94304    90.00000    90.00000    90.00000  Step:        3000  Bead:      24 positions{angstrom}  cell{angstrom}
       E -6.97574e+01 -5.71904e+01  8.38926e+01
       E -7.73428e+01 -4.29531e+01  3.41324e+01
       E  1.86560e+01  1.63821e+01 -3.18801e+01
3
# CELL(abcABC): 1322.94304  1322.94304  1322.94304    90.00000    90.00000    90.00000  Step:        3100  Bead:      24 positions{angstrom}  cell{angstrom}
       E -7.43960e+01 -2.93338e+01  5.26425e+01
       E -4.58645e+01 -2.56596e+01  5.86281e+01
       E  6.07258e+01  4.61786e+01 -7.57540e+00
3
# CELL(abcABC): 1322.94304  1322.94304  1322.94304    90.00000    90.00000    90.00000  Step:        3200  Bead:      24 positions{angstrom}  cell{angstrom}
       E -7.14424e+01 -4.40656e+01  2.55628e+01
       E -4.83690e+01  1.80477e+01  7.66074e+01
       E  4.27992e+01  1.61556e+01  1.92448e+01
3
# CELL(abcABC): 1322.94304  1322.94304  1322.94304    90.00000    90.00000    90.00000  Step:        3300  Bead:      24 positions{angstrom}  cell{angstrom}
       E -7.09870e+01 -1.47065e+01  7.42685e+01
       E -7.40441e+01  3.13815e+01  6.17225e+01
       E  1.29423e+01  3.90248e+01 -2.00572e+01
3
# CELL(abcABC): 1322.94304  1322.94304  1322.94304    90.00000    90.00000    90.00000  Step:        3400  Bead:      24 positions{angstrom}  cell{angstrom}
       E -1.16745e+02  3.04907e+01  8.13420e+01
       E -3.66620e+01  2.21202e+01  4.22281e+01
       E  8.21671e+00  2.27522e+01  3.50143e+01
3
# CELL(abcABC): 1322.94304  1322.94304  1322.94304    90.00000    90.00000    90.00000  Step:        3500  Bead:      24 positions{angstrom}  cell{angstrom}
       E -9.23969e+01  9.44502e+00  8.36371e+01
       E -3.87012e+00  1.95341e+01  3.44931e+01
       E  2.62337e+01  4.36921e+00  1.06166e+01
3
# CELL(abcABC): 1322.94304  1322.94304  1322.94304    90.00000    90.00000    90.00000  Step:        3600  Bead:      24 positions{angstrom}  cell{angstrom}
       E -1.19635e+02 -2.24031e+01  3.51358e+01
       E -1.80551e+01  1.67141e+01  5.78557e+01
       E -5.76798e+01 -1.36318e+01  1.13824e+01
3
# CELL(abcABC): 1322.94304  1322.94304  1322.94304    90.00000    90.00000    90.00000  Step:        3700  Bead:      24 positions{angstrom}  cell{angstrom}
       E -8.21381e+01 -1.02141e+01  1.92761e+01
       E -4.14818e-01  3.47677e-01  4.24260e+01
       E -4.26859e+01 -6.68573e+00  8.81952e+00
3
# CELL(abcABC): 1322.94304  1322.94304  1322.94304    90.00000    90.00000    90.00000  Step:        3800  Bead:      24 positions{angstrom}  cell{angstrom}
       E -7.11101e+01  1.55390e+01 -9.45064e-02
       E -1.61523e+01 -1.14254e+01  5.32885e+01
       E -9.23547e+00 -5.55803e+01 -1.37176e+01
3
# CELL(abcABC): 1322.94304  1322.94304  1322.94304    90.00000    90.00000    90.00000  Step:        3900  Bead:      24 positions{angstrom}  cell{angstrom}
       E -5.47585e+01  1.29238e+01 -3.51446e+01
       E -2.00683e+01 -6.97409e+00  4.74279e+01
       E  1.98824e+01 -3.87526e+01 -1.60484e+01
3
# CELL(abcABC): 1322.94304  1322.94304  1322.94304    90.00000    90.00000    90.00000  Step:        4000  Bead:      24 positions{angstrom}  cell{angstrom}
       E -6.81594e+01 -1.90038e-01 -6.25690e+01
       E -5.93908e+01  1.45899e+01  3.47240e+01
       E -3.76735e+01 -2.16639e+01 -4.27720e+00
3
# CELL(abcABC): 1322.94304  1322.94304  1322.94304    90.00000    90.00000    90.00000  Step:        4100  Bead:      24 positions{angstrom}  cell{angstrom}
       E -8.33105e+01  6.87544e+00 -8.75559e+01
       E -6.36814e+01  2.86089e+01  1.45694e+01
       E -1.87409e+01  4.10982e+00  1.59720e+01
3
# CELL(abcABC): 1322.94304  1322.94304  1322.94304    90.00000    90.00000    90.00000  Step:        4200  Bead:      24 positions{angstrom}  cell{angstrom}
       E -5.37313e+01 -3.98412e+01 -1.11516e+02
       E -5.95959e+01  4.16015e+01 -2.57492e+01
       E  8.06301e+00  2.42732e+01  4.65023e+00
3
# CELL(abcABC): 1322.94304  1322.94304  1322.94304    90.00000    90.00000    90.00000  Step:        4300  Bead:      24 positions{angstrom}  cell{angstrom}
       E -5.23022e+01 -3.50102e+00 -6.84313e+01
       E -4.04370e+01  5.44304e+01 -2.63819e+01
       E  2.89445e+01  1.15903e+01  4.27128e+01
3
# CELL(abcABC): 1322.94304  1322.94304  1322.94304    90.00000    90.00000    90.00000  Step:        4400  Bead:      24 positions{angstrom}  cell{angstrom}
       E -4.08534e+01  2.72067e+01 -5.93063e+01
       E -4.46218e+01  2.92878e+01 -2.15618e+01
       E  3.03004e+01 -2.38186e+01  1.56236e+01
3
# CELL(abcABC): 1322.94304  1322.94304  1322.94304    90.00000    90.00000    90.00000  Step:        4500  Bead:      24 positions{angstrom}  cell{angstrom}
       E -5.05093e+01  2.05779e+01 -3.17706e+01
       E -1.98339e+01  2.25912e+01 -3.59711e+01
       E  3.02257e+01 -3.94715e+01  1.44987e+01
3
# CELL(abcABC): 1322.94304  1322.94304  1322.94304    90.00000    90.00000    90.00000  Step:        4600  Bead:      24 positions{angstrom}  cell{angstrom}
       E -6.17354e+01  2.59316e+01 -4.05488e+01
       E -2.86036e+01  6.58225e+00 -1.13161e+01
       E -2.62146e+01 -1.83278e+01  3.21624e+01
3
# CELL(abcABC): 1322.94304  1322.94304  1322.94304    90.00000    90.00000    90.00000  Step:        4700  Bead:      24 positions{angstrom}  cell{angstrom}
       E -3.17336e+01  5.17667e+01 -8.08678e+01
       E -5.10754e+01  2.60951e+01 -2.10718e+01
       E -2.84617e+01 -3.08989e+01  4.32256e+01
3
# CELL(abcABC): 1322.94304  1322.94304  1322.94304    90.00000    90.00000    90.00000  Step:        4800  Bead:      24 positions{angstrom}  cell{angstrom}
       E -3.01393e+01  2.15398e+00 -7.88741e+01
       E -5.59268e+00  3.42561e+00 -5.35873e+00
       E  9.30103e+00 -1.54825e+01  2.57834e+01
3
# CELL(abcABC): 1322.94304  1322.94304  1322.94304    90.00000    90.00000    90.00000  Step:        4900  Bead:      24 positions{angstrom}  cell{angstrom}
       E -1.75811e+01  2.40836e+01 -4.93431e+01
       E -1.00340e+01 -1.10635e+01 -2.68298e+01
       E -1.68369e+01 -3.99574e+01 -3.13037e+01
3
# CELL(abcABC): 1322.94304  1322.94304  1322.94304    90.00000    90.00000    90.00000  Step:        5000  Bead:      24 positions{angstrom}  cell{angstrom}
       E  1.17127e+01  5.98810e+00  1.65741e+00
       E  2.77462e+01 -1.90697e+01 -2.73329e+01
       E -2.15769e+00 -1.16667e+01  5.56099e+00
3
# CELL(abcABC): 1322.94304  1322.94304  1322.94304    90.00000    90.00000    90.00000  Step:        5100  Bead:      24 positions{angstrom}  cell{angstrom}
       E -4.50886e+01  7.85408e+00  2.53816e+00
       E  1.18585e+01  1.02927e-01 -3.60303e+01
       E  1.21471e+01 -1.11517e+01 -1.78277e+01
3
# CELL(abcABC): 1322.94304  1322.94304  1322.94304    90.00000    90.00000    90.00000  Step:        5200  Bead:      24 positions{angstrom}  cell{angstrom}
       E -6.43653e+01 -1.60953e+00  2.57030e+01
       E  1.15869e+01  2.78246e+01 -1.57151e+01
       E  4.99740e+00  2.06004e+01  1.10565e+01
3
# CELL(abcABC): 1322.94304  1322.94304  1322.94304    90.00000    90.00000    90.00000  Step:        5300  Bead:      24 positions{angstrom}  cell{angstrom}
       E -4.58951e+01 -1.26110e+01 -1.78432e+01
       E  5.88975e+00  2.53010e+01 -6.67132e+00
       E -3.75976e+01  3.40292e+01  6.11775e+01
3
# CELL(abcABC): 1322.94304  1322.94304  1322.94304    90.00000    90.00000    90.00000  Step:        5400  Bead:      24 positions{angstrom}  cell{angstrom}
       E  8.58379e+00  1.48393e+01 -3.96125e+01
       E -5.85551e+00  3.30208e+01  1.05596e+01
       E -2.26627e+01  2.80474e+01  2.67725e+01
3
# CELL(abcABC): 1322.94304  1322.94304  1322.94304    90.00000    90.00000    90.00000  Step:        5500  Bead:      24 positions{angstrom}  cell{angstrom}
       E  1.87215e+01 -1.21436e+01 -2.44234e+01
       E -2.45337e+00  3.42606e+01 -6.56869e+00
       E -2.80462e+01  3.51796e+01  4.05602e+01
3
# CELL(abcABC): 1322.94304  1322.94304  1322.94304    90.00000    90.00000    90.00000  Step:        5600  Bead:      24 positions{angstrom}  cell{angstrom}
       E -2.60726e+01  1.07805e+01 -4.29964e+01
       E  2.21025e+01  4.72257e+01  1.32369e+01
       E -4.97421e+01  3.21059e+00  1.99360e+01
3
# CELL(abcABC): 1322.94304  1322.94304  1322.94304    90.00000    90.00000    90.00000  Step:        5700  Bead:      24 positions{angstrom}  cell{angstrom}
       E  1.52442e+01  1.30873e+01 -5.17371e+01
       E -1.12255e+01  8.72540e+00 -6.29163e+00
       E -2.46133e+01 -1.16255e+01  1.04598e+01
3
# CELL(abcABC): 1322.94304  1322.94304  1322.94304    90.00000    90.00000    90.00000  Step:        5800  Bead:      24 positions{angstrom}  cell{angstrom}
       E -2.52137e+00 -1.11575e+01 -3.07227e+01
       E -4.11752e+01 -1.96239e+01 -1.16544e+01
       E  3.92512e+00 -1.28199e+01 -1.08657e+01
3
# CELL(abcABC): 1322.94304  1322.94304  1322.94304    90.00000    90.00000    90.00000  Step:        5900  Bead:      24 positions{angstrom}  cell{angstrom}
       E  4.90075e+00 -1.51049e+01  1.48844e+00
       E  3.76524e+00  5.76239e+00 -1.14872e+01
       E  2.22105e+01 -3.34597e+01  1.58199e+01
3
# CELL(abcABC): 1322.94304  1322.94304  1322.94304    90.00000    90.00000    90.00000  Step:        6000  Bead:      24 positions{angstrom}  cell{angstrom}
       E -2.21458e+01 -3.97057e+01 -2.92044e+01
       E  3.54151e+01 -4.96261e+00 -5.21285e+01
       E -4.57072e+00 -4.46167e+01  2.52822e+01
3
# CELL(abcABC): 1322.94304  1322.94304  1322.94304    90.00000    90.00000    90.00000  Step:        6100  Bead:      24 positions{angstrom}  cell{angstrom}
       E -3.45744e+01 -3.88467e+01 -2.07284e+01
       E  1.02007e+02  2.63739e+00 -5.99531e+01
       E  3.47023e+01 -4.01508e+01 -1.41040e+00
3
# CELL(abcABC): 1322.94304  1322.94304  1322.94304    90.00000    90.00000    90.00000  Step:        6200  Bead:      24 positions{angstrom}  cell{angstrom}
       E -6.39871e+00 -1.72342e+01 -4.64465e+01
       E  1.17520e+02  5.53836e+01 -7.25556e+00
       E  2.94478e+00 -3.28437e+01  1.57048e+01
3
# CELL(abcABC): 1322.94304  1322.94304  1322.94304    90.00000    90.00000    90.00000  Step:        6300  Bead:      24 positions{angstrom}  cell{angstrom}
       E  2.99411e+01 -8.26097e+01 -9.59512e+01
       E  7.34578e+01  5.38166e+00 -4.02766e+01
       E  2.60637e+01 -5.74540e+01  4.02312e+01
3
# CELL(abcABC): 1322.94304  1322.94304  1322.94304    90.00000    90.00000    90.00000  Step:        6400  Bead:      24 positions{angstrom}  cell{angstrom}
       E  5.38408e+01 -7.99483e+01 -1.18066e+02
       E  1.91534e+01 -9.44845e-01 -5.21529e+01
       E  3.36941e+01 -6.12498e+01  1.11941e+00
3
# CELL(abcABC): 1322.94304  1322.94304  1322.94304    90.00000    90.00000    90.00000  Step:        6500  Bead:      24 positions{angstrom}  cell{angstrom}
       E  2.58339e+01 -9.67180e+01 -1.00352e+02
       E -9.70108e+00  7.53825e+00 -7.24268e+01
       E  3.69557e+01 -4.23180e+01 -1.49661e+00
3
# CELL(abcABC): 1322.94304  1322.94304  1322.94304    90.00000    90.00000    90.00000  Step:        6600  Bead:      24 positions{angstrom}  cell{angstrom}
       E  1.72774e+01 -9.35863e+01 -8.62085e+01
       E  2.68163e+01  3.45804e+01 -3.77845e+01
       E  4.40474e+01  6.71555e-01  1.95911e+01
3
# CELL(abcABC): 1322.94304  1322.94304  1322.94304    90.00000    90.00000    90.00000  Step:        6700  Bead:      24 positions{angstrom}  cell{angstrom}
       E  3.07552e+01 -1.16281e+02 -9.07424e+01
       E  3.46069e+01 -1.49425e+00  7.31491e+00
       E  1.79383e+01 -9.78324e+00  2.32195e+01
3
# CELL(abcABC): 1322.94304  1322.94304  1322.94304    90.00000    90.00000    90.00000  Step:        6800  Bead:      24 positions{angstrom}  cell{angstrom}
       E  2.60117e+01 -1.30627e+02 -7.11392e+01
       E  3.25679e+01 -2.77422e+01  1.32449e+01
       E  2.23986e+01 -4.25929e+01 -7.60087e-01
3
# CELL(abcABC): 1322.94304  1322.94304  1322.94304    90.00000    90.00000    90.00000  Step:        6900  Bead:      24 positions{angstrom}  cell{angstrom}
       E  2.39375e+01 -8.42162e+01 -3.93677e+01
       E  4.18115e+01 -8.48548e+00 -6.72316e-02
       E  7.83676e+00 -3.36377e+01 -3.98705e+01
3
# CELL(abcABC): 1322.94304  1322.94304  1322.94304    90.00000    90.00000    90.00000  Step:        7000  Bead:      24 positions{angstrom}  cell{angstrom}
       E  3.86290e+01 -1.35401e+01 -1.97805e+00
       E  4.76642e+01  3.83755e+01 -1.10237e+01
       E  3.16021e+01  3.88240e+00 -7.79002e+01
3
# CELL(abcABC): 1322.94304  1322.94304  1322.94304    90.00000    90.00000    90.00000  Step:        7100  Bead:      24 positions{angstrom}  cell{angstrom}
       E  2.12355e+01 -3.97684e+01 -3.07311e+01
       E  1.72137e+01  4.99521e+01  7.83144e+00
       E  5.07516e+01 -1.26791e+01 -5.56323e+01
3
# CELL(abcABC): 1322.94304  1322.94304  1322.94304    90.00000    90.00000    90.00000  Step:        7200  Bead:      24 positions{angstrom}  cell{angstrom}
       E -5.17736e+00 -4.38800e+01 -5.43723e+01
       E -1.58396e+01  6.56464e+01  1.73748e+00
       E  3.59543e+01  2.83867e+01 -4.38008e+01
3
# CELL(abcABC): 1322.94304  1322.94304  1322.94304    90.00000    90.00000    90.00000  Step:        7300  Bead:      24 positions{angstrom}  cell{angstrom}
       E  4.80682e+01 -2.47561e+01 -4.62011e+01
       E -2.39662e+01  2.13011e+01 -3.33739e+01
       E  3.55701e+01  4.48393e+01  1.15519e+01
3
# CELL(abcABC): 1322.94304  1322.94304  1322.94304    90.00000    90.00000    90.00000  Step:        7400  Bead:      24 positions{angstrom}  cell{angstrom}
       E -1.17629e+01 -4.59801e+01 -3.90822e+01
       E -8.88617e-01 -5.24843e+00 -2.84737e+01
       E  2.01537e+01  1.10775e+01  3.48588e+01
3
# CELL(abcABC): 1322.94304  1322.94304  1322.94304    90.00000    90.00000    90.00000  Step:        7500  Bead:      24 positions{angstrom}  cell{angstrom}
       E -2.18509e+01 -4.75745e+01 -3.44120e+01
       E  1.38430e+01 -2.87800e+01 -7.69679e+00
       E  3.38949e+01  6.58403e-01  3.69912e+01
3
# CELL(abcABC): 1322.94304  1322.94304  1322.94304    90.00000    90.00000    90.00000  Step:        7600  Bead:      24 positions{angstrom}  cell{angstrom}
       E -1.50557e+01 -6.42468e+01 -3.35010e+01
       E -3.60885e+01  5.79386e+00  7.84343e+00
       E  2.21628e+01 -1.64955e+01 -3.00707e+01
3
# CELL(abcABC): 1322.94304  1322.94304  1322.94304    90.00000    90.00000    90.00000  Step:        7700  Bead:      24 positions{angstrom}  cell{angstrom}
       E -1.98976e+01 -5.30334e+01 -4.53355e+01
       E  1.21669e+01  8.36324e+00 -2.06399e+01
       E  2.54922e+01 -4.77072e+01 -3.23736e+01
3
# CELL(abcABC): 1322.94304  1322.94304  1322.94304    90.00000    90.00000    90.00000  Step:        7800  Bead:      24 positions{angstrom}  cell{angstrom}
       E  3.69815e+01 -1.20502e+01 -3.39107e+01
       E  7.64000e+00  8.56176e+00 -3.40584e+01
       E  3.37296e+01 -8.16168e+01 -3.01327e+01
3
# CELL(abcABC): 1322.94304  1322.94304  1322.94304    90.00000    90.00000    90.00000  Step:        7900  Bead:      24 positions{angstrom}  cell{angstrom}
       E  5.38543e+01 -3.09014e+01 -4.26931e+01
       E  5.33868e+01 -4.39361e-01 -3.93266e+01
       E -1.93266e+01 -5.33000e+01 -4.36247e+01
3
# CELL(abcABC): 1322.94304  1322.94304  1322.94304    90.00000    90.00000    90.00000  Step:        8000  Bead:      24 positions{angstrom}  cell{angstrom}
       E  4.96476e+01  5.03456e-01 -2.25514e+01
       E  6.89910e+00 -3.12988e-01 -4.28272e+01
       E -1.73962e+01 -1.58255e+01 -4.29417e+01
3
# CELL(abcABC): 1322.94304  1322.94304  1322.94304    90.00000    90.00000    90.00000  Step:        8100  Bead:      24 positions{angstrom}  cell{angstrom}
       E  3.75730e+01  4.94312e+01 -5.37343e+01
       E -4.96151e+01  1.65411e+01 -3.60378e+01
       E -1.19387e+01 -2.24746e+01  2.22365e+01
3
# CELL(abcABC): 1322.94304  1322.94304  1322.94304    90.00000    90.00000    90.00000  Step:        8200  Bead:      24 positions{angstrom}  cell{angstrom}
       E  1.53904e+01  2.68354e+01 -8.35298e-01
       E  5.37074e+00  1.69431e+01 -8.93244e+00
       E -2.30008e+01 -5.36763e+01  2.05712e+01
3
# CELL(abcABC): 1322.94304  1322.94304  1322.94304    90.00000    90.00000    90.00000  Step:        8300  Bead:      24 positions{angstrom}  cell{angstrom}
       E -1.99854e+01  4.98921e+01 -2.18881e+01
       E  3.32389e+01  3.98582e+01 -1.92056e+01
       E -1.33719e+01 -4.96836e+01  4.08166e+01
3
# CELL(abcABC): 1322.94304  1322.94304  1322.94304    90.00000    90.00000    90.00000  Step:        8400  Bead:      24 positions{angstrom}  cell{angstrom}
       E -4.22592e+01  5.84616e+00 -2.13548e+00
       E  1.35027e+01  3.96048e+01  1.78015e+01
       E -2.76571e+01 -5.93832e+01  4.46658e+01
3
# CELL(abcABC): 1322.94304  1322.94304  1322.94304    90.00000    90.00000    90.00000  Step:        8500  Bead:      24 positions{angstrom}  cell{angstrom}
       E -1.85987e+01 -4.48502e+00 -3.52158e+01
       E  8.03071e+00  4.73725e+01  1.70306e+01
       E -5.51344e+00 -5.99930e+01  8.78964e+01
3
# CELL(abcABC): 1322.94304  1322.94304  1322.94304    90.00000    90.00000    90.00000  Step:        8600  Bead:      24 positions{angstrom}  cell{angstrom}
       E -1.21253e+01  1.10034e+01 -1.17490e+01
       E  1.83633e+01  2.49581e+01  4.82659e+01
       E  5.26459e+01 -5.15209e+00  3.64357e+01
3
# CELL(abcABC): 1322.94304  1322.94304  1322.94304    90.00000    90.00000    90.00000  Step:        8700  Bead:      24 positions{angstrom}  cell{angstrom}
       E  1.57068e+01 -9.70441e+00 -1.91903e+01
       E  1.13874e+01  5.18065e+00  1.92426e+01
       E  5.53072e+01 -7.50635e+00  2.52891e+01
3
# CELL(abcABC): 1322.94304  1322.94304  1322.94304    90.00000    90.00000    90.00000  Step:        8800  Bead:      24 positions{angstrom}  cell{angstrom}
       E -4.62309e+01 -8.11412e-01 -1.27839e+01
       E  3.66624e+00 -2.83799e+01  3.74801e+01
       E  6.86111e+01 -5.61636e+01  1.06301e+01
3
# CELL(abcABC): 1322.94304  1322.94304  1322.94304    90.00000    90.00000    90.00000  Step:        8900  Bead:      24 positions{angstrom}  cell{angstrom}
       E -5.46218e+01  3.23565e+01  1.05003e+00
       E  3.14704e+01 -2.67116e+01  1.32025e+01
       E  3.81053e+01 -7.84071e+01 -3.42342e-01
3
# CELL(abcABC): 1322.94304  1322.94304  1322.94304    90.00000    90.00000    90.00000  Step:        9000  Bead:      24 positions{angstrom}  cell{angstrom}
       E -5.00145e+01 -1.02979e+01  1.82074e+00
       E  2.34875e+01 -5.54350e+00  6.19124e+01
       E  1.25387e+01 -8.16191e+01  1.40211e+01
3
# CELL(abcABC): 1322.94304  1322.94304  1322.94304    90.00000    90.00000    90.00000  Step:        9100  Bead:      24 positions{angstrom}  cell{angstrom}
       E -3.70312e+01  3.40848e+00  5.24681e+00
       E  7.45078e+00  8.62635e+00  5.27918e+01
       E  2.29082e+01 -4.41944e+01  1.48327e+01
3
# CELL(abcABC): 1322.94304  1322.94304  1322.94304    90.00000    90.00000    90.00000  Step:        9200  Bead:      24 positions{angstrom}  cell{angstrom}
       E  1.71943e+01  3.36734e+01 -4.61527e+01
       E  2.99057e+00 -5.26187e-01  1.78001e+01
       E  3.67975e+01 -4.89045e+01  1.97196e+01
3
# CELL(abcABC): 1322.94304  1322.94304  1322.94304    90.00000    90.00000    90.00000  Step:        9300  Bead:      24 positions{angstrom}  cell{angstrom}
       E  2.35413e+01 -1.90071e+01 -6.56159e+01
       E -3.51965e+01 -2.23909e+01  2.98269e+01
       E  3.75731e+00 -3.27120e+01 -2.70252e+00
3
# CELL(abcABC): 1322.94304  1322.94304  1322.94304    90.00000    90.00000    90.00000  Step:        9400  Bead:      24 positions{angstrom}  cell{angstrom}
       E  4.93548e+01  1.48396e+01 -5.72912e+01
       E -2.03258e+01 -2.44898e+00  6.99107e+01
       E  1.30190e+01 -2.92046e+01 -1.20747e+01
3
# CELL(abcABC): 1322.94304  1322.94304  1322.94304    90.00000    90.00000    90.00000  Step:        9500  Bead:      24 positions{angstrom}  cell{angstrom}
       E  1.95165e+01  3.77886e+01 -6.16831e+01
       E  4.06237e+01 -1.97969e+01  7.20766e+01
       E  2.73227e+01 -2.43337e+01 -9.50529e+00
3
# CELL(abcABC): 1322.94304  1322.94304  1322.94304    90.00000    90.00000    90.00000  Step:        9600  Bead:      24 positions{angstrom}  cell{angstrom}
       E  2.77819e+01 -6.50830e+00 -5.77290e+01
       E  3.20751e+01 -8.68110e+01 -7.84258e+00
       E  8.05672e+00 -1.10138e+01 -1.08679e+01
3
# CELL(abcABC): 1322.94304  1322.94304  1322.94304    90.00000    90.00000    90.00000  Step:        9700  Bead:      24 positions{angstrom}  cell{angstrom}
       E -5.31670e+00 -4.34924e+01 -6.07795e+01
       E  2.68586e+01 -7.10272e+01  1.21124e+01
       E  3.28963e+00  1.18167e+01 -5.09541e+00
3
# CELL(abcABC): 1322.94304  1322.94304  1322.94304    90.00000    90.00000    90.00000  Step:        9800  Bead:      24 positions{angstrom}  cell{angstrom}
       E -5.09070e+01 -5.50826e+01 -4.25636e+01
       E  2.93835e+01 -4.19259e+01 -4.38527e+00
       E  9.34424e-02 -1.45572e+01  1.24342e+01
3