3
# CELL(abcABC): 1322.94304  1322.94304  1322.94304    90.00000    90.00000    90.00000  Step:           0  Bead:       2 positions{angstrom}  cell{angstrom}
       E  0.00000e+00  0.00000e+00  0.00000e+00
       E  0.00000e+00  0.00000e+00  0.00000e+00
       E  0.00000e+00  0.00000e+00  0.00000e+00
3
# CELL(abcABC): 1322.94304  1322.94304  1322.94304    90.00000    90.00000    90.00000  Step:         100  Bead:       2 positions{angstrom}  cell{angstrom}
       E -3.71596e+01 -5.74716e+01 -1.91249e+00
       E -5.12215e-01 -8.13267e+00  5.64455e+00
       E -4.46453e+00  1.32084e+01  9.32861e+00
3
# CELL(abcABC): 1322.94304  1322.94304  1322.94304    90.00000    90.00000    90.00000  Step:         200  Bead:       2 positions{angstrom}  cell{angstrom}
       E -1.17434e+01 -1.32348e+01  8.31714e+00
       E  2.68909e+01 -5.89688e+00 -1.62978e+00
       E  3.08672e+00  2.24366e+01  2.56442e+01
3
# CELL(abcABC): 1322.94304  1322.94304  1322.94304    90.00000    90.00000    90.00000  Step:         300  Bead:       2 positions{angstrom}  cell{angstrom}
       E  4.08535e+01  9.69934e+00 -3.38512e+01
       E -1.05270e+01  5.29227e+00  1.33924e+01
       E -2.58010e+01  1.74433e+01  2.43102e+01
3
# CELL(abcABC): 1322.94304  1322.94304  1322.94304    90.00000    90.00000    90.00000  Step:         400  Bead:       2 positions{angstrom}  cell{angstrom}
       E  5.59900e+01  7.37741e-01 -1.54442e+01
       E  6.61290e+00  6.99263e+00  4.29691e+01
       E -1.87215e+01  2.27812e+01  2.36095e+01
3
# CELL(abcABC): 1322.94304  1322.94304  1322.94304    90.00000    90.00000    90.00000  Step:         500  Bead:       2 positions{angstrom}  cell{angstrom}
       E  1.84790e+01  3.26978e+00 -1.49298e+01
       E  2.41957e+01  6.95714e+00  2.83621e+01
       E -1.98914e+01  1.88224e+01  1.23557e+01
3
# CELL(abcABC): 1322.94304  1322.94304  1322.94304    90.00000    90.00000    90.00000  Step:         600  Bead:       2 positions{angstrom}  cell{angstrom}
       E  1.10383e+01  2.81410e+01 -3.81796e+01
       E -1.42981e+01 -2.34323e+00  2.36052e+01
       E -3.17025e+01  1.70086e+01  3.36056e+01
3
# CELL(abcABC): 1322.94304  1322.94304  1322.94304    90.00000    90.00000    90.00000  Step:         700  Bead:       2 positions{angstrom}  cell{angstrom}
       E -2.26719e+00  2.27560e+01 -6.20032e+00
       E  8.36201e+00  4.06744e+00  2.19576e+01
       E -3.28922e+01 -5.37076e+00  4.80514e+01
3
# CELL(abcABC): 1322.94304  1322.94304  1322.94304    90.00000    90.00000    90.00000  Step:         800  Bead:       2 positions{angstrom}  cell{angstrom}
       E -2.11862e+00  2.71609e+01  6.12479e+00
       E  7.12239e+00  1.26412e+01 -6.71990e+00
       E -3.84667e+01  4.01352e+01  4.48993e+01
3
# CELL(abcABC): 1322.94304  1322.94304  1322.94304    90.00000    90.00000    90.00000  Step:         900  Bead:       2 positions{angstrom}  cell{angstrom}
       E -5.29761e+00 -1.74520e-01  6.65384e+00
       E  1.90123e+01 -2.02134e+00  6.42026e+00
       E -2.57577e+01  3.44142e+01  8.01609e+01
3
# CELL(abcABC): 1322.94304  1322.94304  1322.94304    90.00000    90.00000    90.00000  Step:        1000  Bead:       2 positions{angstrom}  cell{angstrom}
       E -1.87152e+01 -3.75702e+01 -3.27381e+00
       E  2.31588e+01  5.90557e+00 -6.71475e+00
       E -3.89360e-01  1.32900e+01  6.12804e+01
3
# CELL(abcABC): 1322.94304  1322.94304  1322.94304    90.00000    90.00000    90.00000  Step:        1100  Bead:       2 positions{angstrom}  cell{angstrom}
       E -3.33847e-01  1.97133e+01 -3.73630e+01
       E  4.15040e+01 -2.51143e+01 -2.86638e+01
       E -1.68065e+01  2.42868e+01  3.02059e+01
3
# CELL(abcABC): 1322.94304  1322.94304  1322.94304    90.00000    90.00000    90.00000  Step:        1200  Bead:       2 positions{angstrom}  cell{angstrom}
       E  1.35164e+01  1.95291e+01 -5.02038e+01
       E  4.90070e+01 -1.52218e+00 -5.04956e+01
       E -2.04263e+01  4.79419e+01  1.18852e+01
3
# CELL(abcABC): 1322.94304  1322.94304  1322.94304    90.00000    90.00000    90.00000  Step:        1300  Bead:       2 positions{angstrom}  cell{angstrom}
       E  1.79968e+01  5.24362e-01 -6.81225e+01
       E  2.71796e+01 -7.60041e+01 -3.05801e+01
       E -4.40769e+01  5.12729e+01  3.09140e+01
3
# CELL(abcABC): 1322.94304  1322.94304  1322.94304    90.00000    90.00000    90.00000  Step:        1400  Bead:       2 positions{angstrom}  cell{angstrom}
       E -2.08792e+01 -1.23612e+01 -4.01338e+01
       E -8.85397e+00  3.36655e+00 -2.96288e+01
       E -6.46557e+01  2.84136e+01  7.84609e+00
3
# CELL(abcABC): 1322.94304  1322.94304  1322.94304    90.00000    90.00000    90.00000  Step:        1500  Bead:       2 positions{angstrom}  cell{angstrom}
       E -5.13991e+01  2.15590e+01 -5.19239e+01
       E  8.36618e+00 -6.46267e+00  1.13628e+01
       E -4.46515e+01  1.32004e+01 -3.15186e+01
3
# CELL(abcABC): 1322.94304  1322.94304  1322.94304    90.00000    90.00000    90.00000  Step:        1600  Bead:       2 positions{angstrom}  cell{angstrom}
       E -2.34304e+01  1.21300e+01 -5.00872e+01
       E  2.45943e+01  4.47867e+00  1.73911e+01
       E -5.22391e+01  3.74471e+01  4.02435e+00
3
# CELL(abcABC): 1322.94304  1322.94304  1322.94304    90.00000    90.00000    90.00000  Step:        1700  Bead:       2 positions{angstrom}  cell{angstrom}
       E -5.26949e+01  5.92637e+00 -2.42589e+01
       E  9.36614e+00 -9.59820e-01  1.72248e+01
       E -2.98205e+01  7.63150e+01  1.45457e+00
3
# CELL(abcABC): 1322.94304  1322.94304  1322.94304    90.00000    90.00000    90.00000  Step:        1800  Bead:       2 positions{angstrom}  cell{angstrom}
       E -4.68209e+01  8.81362e+00  1.19227e+01
       E -4.35813e+01 -1.04613e+01  3.82495e+01
       E -5.06463e+01  6.88533e+01  3.82337e+00
3
# CELL(abcABC): 1322.94304  1322.94304  1322.94304    90.00000    90.00000    90.00000  Step:        1900  Bead:       2 positions{angstrom}  cell{angstrom}
       E -3.95205e+01  2.89249e+01  1.68674e+01
       E -2.27280e+01 -3.66768e+01 -1.51562e+01
       E -8.27446e+01  4.79306e+01  5.35418e-01
3
# CELL(abcABC): 1322.94304  1322.94304  1322.94304    90.00000    90.00000    90.00000  Step:        2000  Bead:       2 positions{angstrom}  cell{angstrom}
       E -2.88486e+01 -1.19644e+01  3.21668e+01
       E -1.96887e+01 -8.90795e+00  3.90745e+01
       E -5.51401e+01  5.29957e+01 -5.54998e+00
3
# CELL(abcABC): 1322.94304  1322.94304  1322.94304    90.00000    90.00000    90.00000  Step:        2100  Bead:       2 positions{angstrom}  cell{angstrom}
       E -7.66419e+00 -7.25155e+01  2.68282e+01
       E -3.97025e+01 -2.33841e+01  3.18019e-01
       E -6.85223e+01  4.59151e+01  9.85203e+00
3
# CELL(abcABC): 1322.94304  1322.94304  1322.94304    90.00000    90.00000    90.00000  Step:        2200  Bead:       2 positions{angstrom}  cell{angstrom}
       E  2.82344e+01 -6.69981e+01  2.87520e+01
       E -5.75613e+01 -9.75728e+00 -5.73955e+00
       E -8.11201e+01  3.82375e+01  3.21087e+01
3
# CELL(abcABC): 1322.94304  1322.94304  1322.94304    90.00000    90.00000    90.00000  Step:        2300  Bead:       2 positions{angstrom}  cell{angstrom}
       E  2.03760e+01 -7.54395e+01 -5.75072e+00
       E -3.10322e+00  8.44713e+00 -1.64804e+01
       E -5.30616e+01  6.88510e+01  2.28409e+01
3
# CELL(abcABC): 1322.94304  1322.94304  1322.94304    90.00000    90.00000    90.00000  Step:        2400  Bead:       2 positions{angstrom}  cell{angstrom}
       E -1.38950e+01 -4.12372e+01  2.82375e+01
       E  1.29187e+01 -3.38808e+01 -2.51566e+01
       E -1.71450e+01  4.22736e+01  3.47361e+01
3
# CELL(abcABC): 1322.94304  1322.94304  1322.94304    90.00000    90.00000    90.00000  Step:        2500  Bead:       2 positions{angstrom}  cell{angstrom}
       E  2.79636e+00 -2.50082e+01  4.25926e+01
       E  7.23353e+00 -1.12860e+01 -2.39471e+01
       E -3.78232e+01 -2.10797e+01  5.88038e+01
3
# CELL(abcABC): 1322.94304  1322.94304  1322.94304    90.00000    90.00000    90.00000  Step:        2600  Bead:       2 positions{angstrom}  cell{angstrom}
       E -3.77990e+00 -3.77726e+01  9.21493e+01
       E  6.07386e+00 -3.00125e+01 -2.86052e+01
       E -3.11310e+01 -4.47947e+01  2.38874e+01
3
# CELL(abcABC): 1322.94304  1322.94304  1322.94304    90.00000    90.00000    90.00000  Step:        2700  Bead:       2 positions{angstrom}  cell{angstrom}
       E -3.25982e+01 -1.74427e+01  8.11648e+01
       E -5.57065e+00 -3.57994e+01  3.03713e+00
       E -3.84017e+01 -8.50619e+00  3.80876e+01
3
# CELL(abcABC): 1322.94304  1322.94304  1322.94304    90.00000    90.00000    90.00000  Step:        2800  Bead:       2 positions{angstrom}  cell{angstrom}
       E -8.73997e+00 -8.07702e+01  5.69179e+01
       E  3.67141e+00 -2.14384e+01 -1.33672e+01
       E -3.87373e+01  1.75142e+01  1.70972e+01
3
# CELL(abcABC): 1322.94304  1322.94304  1322.94304    90.00000    90.00000    90.00000  Step:        2900  Bead:       2 positions{angstrom}  cell{angstrom}
       E -7.67368e+01 -8.43343e+01  4.84415e+01
       E  3.19924e+01 -4.87485e+01  1.25073e+01
       E -1.31580e+01 -6.35023e+00  3.83501e+01
3
# CELL(abcABC): 1322.94304  1322.94304  1322.94304    90.00000    90.00000    90.00000  Step:        3000  Bead:       2 positions{angstrom}  cell{angstrom}
       E -6.60541e+01 -1.70217e+01  1.27327e+01
       E  3.47538e+01 -5.01764e+01  2.75620e+01
       E -1.39211e+01  7.90772e+00  3.32275e+01
3
# CELL(abcABC): 1322.94304  1322.94304  1322.94304    90.00000    90.00000    90.00000  Step:        3100  Bead:       2 positions{angstrom}  cell{angstrom}
       E -8.12844e+01 -4.08228e+01  3.55505e+01
       E  5.49781e+01 -8.76869e+01  2.78414e+01
       E -5.07613e+01 -4.56878e+00  3.19914e+01
3
# CELL(abcABC): 1322.94304  1322.94304  1322.94304    90.00000    90.00000    90.00000  Step:        3200  Bead:       2 positions{angstrom}  cell{angstrom}
       E -7.96665e+01 -2.70084e+01  3.84559e+01
       E  3.57392e+01 -6.93958e+01  3.51204e+01
       E  7.15620e+00  3.86477e+01  5.29174e+01
3
# CELL(abcABC): 1322.94304  1322.94304  1322.94304    90.00000    90.00000    90.00000  Step:        3300  Bead:       2 positions{angstrom}  cell{angstrom}
       E -7.42342e+01 -2.67874e+01  6.92726e+01
       E  2.62466e+01 -2.90853e+01  5.08106e+01
       E -5.30768e+01  4.33428e+01  7.99965e+01
3
# CELL(abcABC): 1322.94304  1322.94304  1322.94304    90.00000    90.00000    90.00000  Step:        3400  Bead:       2 positions{angstrom}  cell{angstrom}
       E -9.95406e+01 -3.11730e+01  9.15046e+01
       E -1.01212e+01 -4.04590e+01  3.02285e+01
       E -4.80094e+01  2.51641e+01  8.75972e+01
3
# CELL(abcABC): 1322.94304  1322.94304  1322.94304    90.00000    90.00000    90.00000  Step:        3500  Bead:       2 positions{angstrom}  cell{angstrom}
       E -8.52838e+01 -3.12975e+01  2.89926e+01
       E -4.19567e-01 -4.63898e+01  2.52160e+01
       E -6.57511e+01  2.78181e+01  6.38460e+01
3
# CELL(abcABC): 1322.94304  1322.94304  1322.94304    90.00000    90.00000    90.00000  Step:        3600  Bead:       2 positions{angstrom}  cell{angstrom}
       E -9.64841e+01 -4.61090e+01  4.26300e+00
       E -4.69545e+00 -4.01697e+01  1.51854e+01
       E -7.48316e+01  1.68993e+01  3.39521e+01
3
# CELL(abcABC): 1322.94304  1322.94304  1322.94304    90.00000    90.00000    90.00000  Step:        3700  Bead:       2 positions{angstrom}  cell{angstrom}
       E -4.13170e+01 -5.01612e+01 -2.38850e+01
       E -1.94445e+01 -4.77242e+01  8.13165e+00
       E -5.95452e+01  5.83221e+00  1.80982e+01
3
# CELL(abcABC): 1322.94304  1322.94304  1322.94304    90.00000    90.00000    90.00000  Step:        3800  Bead:       2 positions{angstrom}  cell{angstrom}
       E -3.43011e+01 -5.07951e+01 -2.26040e+01
       E -4.70327e+01 -3.23142e+01 -2.13008e+01
       E -5.36625e+00 -5.39094e+00  1.42798e+01
3
# CELL(abcABC): 1322.94304  1322.94304  1322.94304    90.00000    90.00000    90.00000  Step:        3900  Bead:       2 positions{angstrom}  cell{angstrom}
       E -4.06667e+01 -1.41215e+01 -1.47049e+01
       E -5.03331e+01 -9.22248e+00 -4.24095e+01
       E -2.96923e+01 -1.25969e+01  9.53495e+00
3
# CELL(abcABC): 1322.94304  1322.94304  1322.94304    90.00000    90.00000    90.00000  Step:        4000  Bead:       2 positions{angstrom}  cell{angstrom}
       E -5.05771e+01 -4.62915e+00  6.13886e+00
       E -8.40852e+01 -2.35477e+01 -4.10343e+01
       E -1.31871e+01 -8.05950e+00  1.22451e+01
3
# CELL(abcABC): 1322.94304  1322.94304  1322.94304    90.00000    90.00000    90.00000  Step:        4100  Bead:       2 positions{angstrom}  cell{angstrom}
       E -4.20457e+01  3.73000e+01 -5.81194e+01
       E -4.63560e+01  4.26417e+01 -3.67516e+01
       E -4.51671e+01  5.92213e+01  1.76102e+01
3
# CELL(abcABC): 1322.94304  1322.94304  1322.94304    90.00000    90.00000    90.00000  Step:        4200  Bead:       2 positions{angstrom}  cell{angstrom}
       E -3.38820e+01  1.53268e+01 -2.27557e+01
       E -5.14799e+01  3.91100e+01 -3.20774e+01
       E -5.88343e+01  1.94334e+01  2.36068e+01
3
# CELL(abcABC): 1322.94304  1322.94304  1322.94304    90.00000    90.00000    90.00000  Step:        4300  Bead:       2 positions{angstrom}  cell{angstrom}
       E -2.55616e+01  1.35819e+01 -1.01601e+01
       E -7.36736e+01  3.03864e+01 -7.01534e+01
       E -5.79512e+01 -1.74145e+01  2.69844e+01
3
# CELL(abcABC): 1322.94304  1322.94304  1322.94304    90.00000    90.00000    90.00000  Step:        4400  Bead:       2 positions{angstrom}  cell{angstrom}
       E -2.19318e+01  4.46844e+01  9.84911e-01
       E -7.46155e+01  6.39146e+01 -2.03654e+01
       E -4.97770e+01 -1.99508e-01  1.47230e+01
3
# CELL(abcABC): 1322.94304  1322.94304  1322.94304    90.00000    90.00000    90.00000  Step:        4500  Bead:       2 positions{angstrom}  cell{angstrom}
       E -4.71811e+01  3.39138e+01  3.48836e+01
       E -5.51963e+01  8.11276e+01 -1.64558e+01
       E -5.02647e+01 -3.11953e+01  1.13646e+01
3
# CELL(abcABC): 1322.94304  1322.94304  1322.94304    90.00000    90.00000    90.00000  Step:        4600  Bead:       2 positions{angstrom}  cell{angstrom}
       E -1.00388e+01  2.39718e+01  1.20435e+01
       E -8.35214e+01  1.91116e+01 -2.28857e+01
       E -3.83640e+01 -2.18341e+00  2.35639e+01
3
# CELL(abcABC): 1322.94304  1322.94304  1322.94304    90.00000    90.00000    90.00000  Step:        4700  Bead:       2 positions{angstrom}  cell{angstrom}
       E -5.09635e+00  3.25774e+01  2.12831e+01
       E -5.89900e+01  1.87995e+01 -3.64181e+01
       E -3.26313e+01  1.48602e+01  1.96061e+01
3
# CELL(abcABC): 1322.94304  1322.94304  1322.94304    90.00000    90.00000    90.00000  Step:        4800  Bead:       2 positions{angstrom}  cell{angstrom}
       E  2.59938e+01  4.90913e+00  1.50261e+01
       E -4.21548e+01 -1.59903e+01 -5.31018e+01
       E -1.83463e+01  1.69845e+00 -3.23307e+01
3
# CELL(abcABC): 1322.94304  1322.94304  1322.94304    90.00000    90.00000    90.00000  Step:        4900  Bead:       2 positions{angstrom}  cell{angstrom}
       E  5.73671e+01 -1.17139e+01 -7.99274e+00
       E -7.05055e+01  1.51507e+01 -4.39013e+01
       E  9.88458e+00  1.20298e+00 -3.90939e+01
3
# CELL(abcABC): 1322.94304  1322.94304  1322.94304    90.00000    90.00000    90.00000  Step:        5000  Bead:       2 positions{angstrom}  cell{angstrom}
       E  3.59204e+01 -9.20806e+00  3.07705e+01
       E -4.96203e+01 -1.15737e+01 -6.21570e+01
       E -7.27142e+00 -2.05241e+01 -6.02328e+01
3
# CELL(abcABC): 1322.94304  1322.94304  1322.94304    90.00000    90.00000    90.00000  Step:        5100  Bead:       2 positions{angstrom}  cell{angstrom}
       E  2.04673e+01 -5.02229e+00  4.95895e+01
       E -4.77366e+01  1.08471e+01 -1.53084e+01
       E  2.79990e+01 -1.65250e+01 -2.83108e+01
3
# CELL(abcABC): 1322.94304  1322.94304  1322.94304    90.00000    90.00000    90.00000  Step:        5200  Bead:       2 positions{angstrom}  cell{angstrom}
       E  1.02236e+01 -9.21294e+00 -1.09549e+00
       E -2.06957e+01  4.41172e+01 -3.83166e+01
       E  1.25275e+01  2.25410e+01 -2.44948e+01
3
# CELL(abcABC): 1322.94304  1322.94304  1322.94304    90.00000    90.00000    90.00000  Step:        5300  Bead:       2 positions{angstrom}  cell{angstrom}
       E  1.30951e+01  2.13301e+00  1.29305e+01
       E -2.77294e+01  4.62773e+01 -3.58644e+01
       E -1.12827e+01  2.62817e+01  2.76316e+00
3
# CELL(abcABC): 1322.94304  1322.94304  1322.94304    90.00000    90.00000    90.00000  Step:        5400  Bead:       2 positions{angstrom}  cell{angstrom}
       E -2.02653e+01  2.08098e+01  5.14310e+01
       E -4.47691e+01  2.31158e+01 -2.16483e+01
       E -2.23534e+01  2.86771e+01  1.74256e+00
3
# CELL(abcABC): 1322.94304  1322.94304  1322.94304    90.00000    90.00000    90.00000  Step:        5500  Bead:       2 positions{angstrom}  cell{angstrom}
       E -1.85370e+00  2.36481e+01  6.79068e+01
       E -2.73987e+01  5.16076e+01 -2.04262e-01
       E -1.89890e+01  4.16145e+01 -3.94434e+00
3
# CELL(abcABC): 1322.94304  1322.94304  1322.94304    90.00000    90.00000    90.00000  Step:        5600  Bead:       2 positions{angstrom}  cell{angstrom}
       E -5.27262e+00  1.21939e+01  2.49910e+01
       E -2.63013e+01  7.96817e+00 -2.26675e+01
       E  2.98969e+00  1.82243e+01  5.42103e+00
3
# CELL(abcABC): 1322.94304  1322.94304  1322.94304    90.00000    90.00000    90.00000  Step:        5700  Bead:       2 positions{angstrom}  cell{angstrom}
       E -1.87737e+01 -2.05297e+01  4.50319e+01
       E -2.64769e+01  6.69915e+00 -1.13712e+00
       E -2.99270e+01  2.29218e+01  7.12826e+00
3
# CELL(abcABC): 1322.94304  1322.94304  1322.94304    90.00000    90.00000    90.00000  Step:        5800  Bead:       2 positions{angstrom}  cell{angstrom}
       E -2.88162e+01 -3.05507e+01  1.67275e+01
       E -3.60753e+01  2.67899e+01  6.69939e+00
       E -1.94242e+01  5.11932e+01  1.94945e+01
3
# CELL(abcABC): 1322.94304  1322.94304  1322.94304    90.00000    90.00000    90.00000  Step:        5900  Bead:       2 positions{angstrom}  cell{angstrom}
       E -1.89659e+01 -4.71819e+01 -2.72193e-01
       E -6.71977e+01  1.39516e+01 -9.95753e+00
       E  6.22529e+00  1.45591e+01 -2.04685e+01
3
# CELL(abcABC): 1322.94304  1322.94304  1322.94304    90.00000    90.00000    90.00000  Step:        6000  Bead:       2 positions{angstrom}  cell{angstrom}
       E  6.63294e+00 -6.07270e+01 -4.16338e+01
       E -2.82251e+01  9.47203e+00 -1.75019e+01
       E  5.04068e+01  7.39359e+00 -5.67274e+01
3
# CELL(abcABC): 1322.94304  1322.94304  1322.94304    90.00000    90.00000    90.00000  Step:        6100  Bead:       2 positions{angstrom}  cell{angstrom}
       E  3.14459e+01 -4.75587e+01 -4.00205e+01
       E -6.97045e+00 -3.73286e+01  2.80991e+00
       E  2.52527e+01  9.48270e+00 -4.77980e+01
3
# CELL(abcABC): 1322.94304  1322.94304  1322.94304    90.00000    90.00000    90.00000  Step:        6200  Bead:       2 positions{angstrom}  cell{angstrom}
       E  4.83853e+01 -3.39436e+01 -5.98975e+01
       E  2.21929e+01 -3.30294e+01  1.45552e+01
       E  5.35434e+01  1.80054e+01 -6.54034e+01
3
# CELL(abcABC): 1322.94304  1322.94304  1322.94304    90.00000    90.00000    90.00000  Step:        6300  Bead:       2 positions{angstrom}  cell{angstrom}
       E  2.03257e+01 -6.75438e+01 -6.71410e+01
       E  4.01280e+01 -8.88867e+01 -1.27523e+01
       E  3.99684e+01  6.57567e+00 -4.15138e+01
3
# CELL(abcABC): 1322.94304  1322.94304  1322.94304    90.00000    90.00000    90.00000  Step:        6400  Bead:       2 positions{angstrom}  cell{angstrom}
       E  1.09233e+01 -8.71213e+01 -8.02220e+01
       E  3.19489e+01 -6.23501e+01  3.17387e+00
       E  6.38873e+01 -2.20356e+01 -2.28834e+01
3
# CELL(abcABC): 1322.94304  1322.94304  1322.94304    90.00000    90.00000    90.00000  Step:        6500  Bead:       2 positions{angstrom}  cell{angstrom}
       E -2.21994e+01 -1.13046e+02 -9.54290e+01
       E  2.97979e+01 -2.22736e+01  7.22302e-02
       E  1.80419e+01  4.61865e+00 -4.25553e+01
3
# CELL(abcABC): 1322.94304  1322.94304  1322.94304    90.00000    90.00000    90.00000  Step:        6600  Bead:       2 positions{angstrom}  cell{angstrom}
       E  3.98527e+00 -8.37705e+01 -1.14233e+02
       E  1.20802e+01 -2.70103e+01  9.98544e+00
       E -2.07420e+01 -1.95555e+01  7.14511e+00
3
# CELL(abcABC): 1322.94304  1322.94304  1322.94304    90.00000    90.00000    90.00000  Step:        6700  Bead:       2 positions{angstrom}  cell{angstrom}
       E  1.12582e+01 -8.02335e+01 -1.12640e+02
       E  2.61347e+01 -6.19784e+01 -3.18595e+00
       E  1.28744e+01  4.31623e+01 -2.20983e+01
3
# CELL(abcABC): 1322.94304  1322.94304  1322.94304    90.00000    90.00000    90.00000  Step:        6800  Bead:       2 positions{angstrom}  cell{angstrom}
       E -1.75690e+01 -6.97526e+01 -7.04680e+01
       E  2.04340e+01 -6.26451e+01 -1.92382e+00
       E  3.80978e+00  3.50612e+01  1.39054e+01
3
# CELL(abcABC): 1322.94304  1322.94304  1322.94304    90.00000    90.00000    90.00000  Step:        6900  Bead:       2 positions{angstrom}  cell{angstrom}
       E -3.57283e+01 -6.93843e+01 -5.69128e+01
       E -1.65319e+01 -2.49875e+01  4.73068e+00
       E  1.75743e+00  3.70683e+01  3.13358e+00
3
# CELL(abcABC): 1322.94304  1322.94304  1322.94304    90.00000    90.00000    90.00000  Step:        7000  Bead:       2 positions{angstrom}  cell{angstrom}
       E -3.07291e+01 -5.23676e+01 -3.92158e+01
       E -2.92727e+00 -3.13050e+01 -3.15060e+01
       E  1.87416e+01  5.61017e+01  1.78423e+01
3
# CELL(abcABC): 1322.94304  1322.94304  1322.94304    90.00000    90.00000    90.00000  Step:        7100  Bead:       2 positions{angstrom}  cell{angstrom}
       E -1.94530e+01 -1.02446e+01 -3.24980e+01
       E -8.62100e+00  4.36213e+00  3.63615e+01
       E  5.00670e+00  5.69527e+01  8.82000e+00
3
# CELL(abcABC): 1322.94304  1322.94304  1322.94304    90.00000    90.00000    90.00000  Step:        7200  Bead:       2 positions{angstrom}  cell{angstrom}
       E -2.35108e+01 -2.34854e+01 -4.52614e+01
       E -1.87366e+01  2.89333e+00  4.81087e+01
       E  1.08801e+01  9.12428e+01  1.33138e+01
3
# CELL(abcABC): 1322.94304  1322.94304  1322.94304    90.00000    90.00000    90.00000  Step:        7300  Bead:       2 positions{angstrom}  cell{angstrom}
       E -1.13515e+01 -2.98248e+01 -4.66880e+01
       E  9.29274e-01  3.26214e+01  3.46233e+01
       E  5.20674e+00  5.33627e+01 -1.31449e+01
3
# CELL(abcABC): 1322.94304  1322.94304  1322.94304    90.00000    90.00000    90.00000  Step:        7400  Bead:       2 positions{angstrom}  cell{angstrom}
       E  1.69375e+01 -1.50719e+01 -8.63142e+00
       E  1.11112e+01  1.02646e+01  6.30172e+00
       E  1.66736e+01  4.16286e+01 -2.97304e+01
3
# CELL(abcABC): 1322.94304  1322.94304  1322.94304    90.00000    90.00000    90.00000  Step:        7500  Bead:       2 positions{angstrom}  cell{angstrom}
       E -9.54320e+00 -2.54207e+01 -2.48563e+01
       E -1.28675e+01 -1.60451e+01 -2.34232e+01
       E  3.94843e+01  5.22674e+01 -6.33463e+00
3
# CELL(abcABC): 1322.94304  1322.94304  1322.94304    90.00000    90.00000    90.00000  Step:        7600  Bead:       2 positions{angstrom}  cell{angstrom}
       E -1.28916e+01 -3.85613e+01 -4.43274e+01
       E  4.54452e+00 -4.47397e+01 -1.30317e+01
       E  4.28377e+01  3.41775e+01 -3.27542e+01
3
# CELL(abcABC): 1322.94304  1322.94304  1322.94304    90.00000    90.00000    90.00000  Step:        7700  Bead:       2 positions{angstrom}  cell{angstrom}
       E  9.49818e+00 -3.67447e+01 -2.03358e+01
       E  1.36750e+01 -3.64858e+01 -6.58601e+00
       E  1.85593e+01 -4.29352e+01 -1.29912e+01
3
# CELL(abcABC): 1322.94304  1322.94304  1322.94304    90.00000    90.00000    90.00000  Step:        7800  Bead:       2 positions{angstrom}  cell{angstrom}
       E  3.45782e+01 -2.20535e+01 -2.78579e+01
       E  9.12068e+00 -4.05843e+01 -4.51435e+01
       E  2.23336e+01 -1.59736e+01 -4.33676e+01
3
# CELL(abcABC): 1322.94304  1322.94304  1322.94304    90.00000    90.00000    90.00000  Step:        7900  Bead:       2 positions{angstrom}  cell{angstrom}
       E  3.87410e+01  1.55898e+00 -2.29881e+01
       E  5.74732e+01 -6.49582e+00 -4.12926e+01
       E  2.34116e+01  2.16981e+01 -4.53306e+01
3
# CELL(abcABC): 1322.94304  1322.94304  1322.94304    90.00000    90.00000    90.00000  Step:        8000  Bead:       2 positions{angstrom}  cell{angstrom}
       E  4.90175e+01  2.04477e+01 -3.42920e+01
       E  6.18322e+01 -2.07073e+01 -3.74713e+01
       E  1.86374e+01  2.78884e+01 -1.95929e+01
3
# CELL(abcABC): 1322.94304  1322.94304  1322.94304    90.00000    90.00000    90.00000  Step:        8100  Bead:       2 positions{angstrom}  cell{angstrom}
       E  2.13946e+01  2.71485e+01 -2.71945e+01
       E  3.88115e+01  1.84178e+01 -1.24374e+00
       E -4.43686e+01 -5.15302e+01  7.49019e+00
3
# CELL(abcABC): 1322.94304  1322.94304  1322.94304    90.00000    90.00000    90.00000  Step:        8200  Bead:       2 positions{angstrom}  cell{angstrom}
       E  4.43016e+01  1.10616e+01 -4.80881e+01
       E  3.65106e+01  6.59543e+01 -1.57282e+00
       E  1.50727e+01 -3.84222e+01  7.32288e+00
3
# CELL(abcABC): 1322.94304  1322.94304  1322.94304    90.00000    90.00000    90.00000  Step:        8300  Bead:       2 positions{angstrom}  cell{angstrom}
       E  4.31001e+01  2.78721e+00 -4.38242e+01
       E  4.99674e+01  1.91734e+01  3.63837e+01
       E  1.29391e+00 -2.17368e+01  3.20184e+00
3
# CELL(abcABC): 1322.94304  1322.94304  1322.94304    90.00000    90.00000    90.00000  Step:        8400  Bead:       2 positions{angstrom}  cell{angstrom}
       E  5.52573e+01  3.55009e+00 -2.96147e+00
       E  3.72628e+01  5.26449e+01  5.01574e+01
       E  1.05916e+01  2.38721e+00  3.58321e+01
3
# CELL(abcABC): 1322.94304  1322.94304  1322.94304    90.00000    90.00000    90.00000  Step:        8500  Bead:       2 positions{angstrom}  cell{angstrom}
       E  5.68851e+00 -9.88746e+00 -1.05079e+00
       E  4.05935e+01  3.83701e+01  2.83399e+01
       E  3.36988e+01 -1.25101e+01  2.63961e+01
3
# CELL(abcABC): 1322.94304  1322.94304  1322.94304    90.00000    90.00000    90.00000  Step:        8600  Bead:       2 positions{angstrom}  cell{angstrom}
       E -3.18684e+01 -1.13460e+01 -9.77980e+00
       E  5.29556e+01  6.35580e+00 -1.25972e+01
       E  4.85067e+01 -1.68483e+01  4.20752e+01
3
# CELL(abcABC): 1322.94304  1322.94304  1322.94304    90.00000    90.00000    90.00000  Step:        8700  Bead:       2 positions{angstrom}  cell{angstrom}
       E -2.76255e+01  2.27789e+01 -2.64928e+01
       E  2.58677e+01 -8.81658e+00 -1.06531e+01
       E  2.76011e+01 -5.49165e+01  3.62766e+01
3
# CELL(abcABC): 1322.94304  1322.94304  1322.94304    90.00000    90.00000    90.00000  Step:        8800  Bead:       2 positions{angstrom}  cell{angstrom}
       E -1.30441e+01  4.03268e+01 -9.77485e+00
       E  8.08338e-01 -1.80102e+01  5.85249e+00
       E  5.10508e+01 -8.06545e+01  6.87981e+01
3
# CELL(abcABC): 1322.94304  1322.94304  1322.94304    90.00000    90.00000    90.00000  Step:        8900  Bead:       2 positions{angstrom}  cell{angstrom}
       E -2.03508e+01  3.55964e+01 -2.18841e+00
       E -2.22368e+01 -2.25445e+01  3.29679e+01
       E  1.12965e+01 -7.16274e+01  7.02286e+00
3
# CELL(abcABC): 1322.94304  1322.94304  1322.94304    90.00000    90.00000    90.00000  Step:        9000  Bead:       2 positions{angstrom}  cell{angstrom}
       E -9.73286e+00  4.38688e+01  7.80658e+00
       E -4.67439e+01 -2.75843e+01  2.87645e+01
       E -1.03692e+01 -7.25109e+01 -1.28849e+01
3
# CELL(abcABC): 1322.94304  1322.94304  1322.94304    90.00000    90.00000    90.00000  Step:        9100  Bead:       2 positions{angstrom}  cell{angstrom}
       E  2.89278e+01  4.28970e+01  1.93624e+01
       E -4.91805e+01  1.47104e+01  1.70055e+01
       E -1.78136e+01 -6.33982e+01 -1.42840e+01
3
# CELL(abcABC): 1322.94304  1322.94304  1322.94304    90.00000    90.00000    90.00000  Step:        9200  Bead:       2 positions{angstrom}  cell{angstrom}
       E -1.71635e+01  3.38047e+01 -1.12888e+00
       E  9.71274e+00 -9.13927e+00  4.75856e+01
       E  1.98499e+01 -3.97020e+01 -3.02533e+01
3
# CELL(abcABC): 1322.94304  1322.94304  1322.94304    90.00000    90.00000    90.00000  Step:        9300  Bead:       2 positions{angstrom}  cell{angstrom}
       E  4.20110e+01  5.00337e+01 -4.21829e+01
       E  3.20418e+01 -4.91634e+01  2.65965e+01
       E  3.90586e+01 -2.99935e+01  2.09289e+01
3
# CELL(abcABC): 1322.94304  1322.94304  1322.94304    90.00000    90.00000    90.00000  Step:        9400  Bead:       2 positions{angstrom}  cell{angstrom}
       E  2.49628e+01  4.90352e+01 -2.63359e+01
       E  3.65861e+01 -4.57861e+01 -2.69881e+00
       E  1.20141e+00 -9.17358e+00  2.33601e+01
3
# CELL(abcABC): 1322.94304  1322.94304  1322.94304    90.00000    90.00000    90.00000  Step:        9500  Bead:       2 positions{angstrom}  cell{angstrom}
       E  5.11432e+00  3.94523e+00 -2.82324e+01
       E  3.56198e+01  7.48930e+00  2.85513e+01
       E -8.99394e+00 -1.96101e+01  2.31409e+01
3
# CELL(abcABC): 1322.94304  1322.94304  1322.94304    90.00000    90.00000    90.00000  Step:        9600  Bead:       2 positions{angstrom}  cell{angstrom}
       E -2.17211e+01  1.24659e+01 -5.47382e+01
       E  5.68963e+01 -3.18564e+01  3.63513e+01
       E -2.42189e+01 -3.69458e+01 -1.09943e+01
3
# CELL(abcABC): 1322.94304  1322.94304  1322.94304    90.00000    90.00000    90.00000  Step:        9700  Bead:       2 positions{angstrom}  cell{angstrom}
       E -5.64579e+01 -2.65075e+00 -7.06829e+01
       E  3.02905e+01 -8.11938e+01 -4.63844e+00
       E -4.63069e+01 -3.27636e+01 -1.13404e+01
3
# CELL(abcABC): 1322.94304  1322.94304  1322.94304    90.00000    90.00000    90.00000  Step:        9800  Bead:       2 positions{angstrom}  cell{angstrom}
       E -5.48050e+01 -6.68649e+01 -7.28889e+01
       E  4.75982e+01 -9.40367e+01 -6.93810e+00
       E  5.90409e-01 -1.91736e+01  5.21562e+01
3