3
# CELL(abcABC): 1322.94304  1322.94304  1322.94304    90.00000    90.00000    90.00000  Step:           0  Bead:      11 positions{angstrom}  cell{angstrom}
       E  0.00000e+00  0.00000e+00  0.00000e+00
       E  0.00000e+00  0.00000e+00  0.00000e+00
       E  0.00000e+00  0.00000e+00  0.00000e+00
3
# CELL(abcABC): 1322.94304  1322.94304  1322.94304    90.00000    90.00000    90.00000  Step:         100  Bead:      11 positions{angstrom}  cell{angstrom}
       E -8.98358e+00  2.10617e+00 -1.35891e+01
       E  1.29442e+01  9.77592e+00 -2.50534e+01
       E -1.68252e+01 -3.43118e+00 -5.98908e+00
3
# CELL(abcABC): 1322.94304  1322.94304  1322.94304    90.00000    90.00000    90.00000  Step:         200  Bead:      11 positions{angstrom}  cell{angstrom}
       E -1.47630e+01 -3.44861e+01 -1.06525e+01
       E  2.98980e+01 -2.36878e+01 -2.90894e+01
       E -3.96577e+01 -3.82673e+00 -1.43502e+01
3
# CELL(abcABC): 1322.94304  1322.94304  1322.94304    90.00000    90.00000    90.00000  Step:         300  Bead:      11 positions{angstrom}  cell{angstrom}
       E -1.23397e+01  6.72821e+00 -2.00774e+01
       E  1.84494e+01  5.62442e+00 -1.22994e+01
       E -2.09571e+01  1.59508e+01  3.35321e+01
3
# CELL(abcABC): 1322.94304  1322.94304  1322.94304    90.00000    90.00000    90.00000  Step:         400  Bead:      11 positions{angstrom}  cell{angstrom}
       E -5.70612e+00  1.64911e+01 -1.06783e+01
       E  2.97118e+00  4.90382e+01 -1.14187e+01
       E -1.36131e+01 -1.06347e-01  1.89932e+01
3
# CELL(abcABC): 1322.94304  1322.94304  1322.94304    90.00000    90.00000    90.00000  Step:         500  Bead:      11 positions{angstrom}  cell{angstrom}
       E -1.01100e+01  2.95556e+01 -8.22912e+00
       E -3.59573e+00  2.44153e+01  1.24547e+01
       E -1.47058e+00  3.12530e+01  2.22341e+01
3
# CELL(abcABC): 1322.94304  1322.94304  1322.94304    90.00000    90.00000    90.00000  Step:         600  Bead:      11 positions{angstrom}  cell{angstrom}
       E -9.45662e+00  2.52456e+01 -3.42812e+01
       E -2.98215e+00 -8.61274e-01  4.46719e+01
       E  2.18671e+01  1.95755e+00  2.62233e+01
3
# CELL(abcABC): 1322.94304  1322.94304  1322.94304    90.00000    90.00000    90.00000  Step:         700  Bead:      11 positions{angstrom}  cell{angstrom}
       E  3.28882e+00  3.97882e+01 -2.65964e+01
       E -5.81897e+00  4.31533e+01  3.48012e+01
       E -5.38703e+00 -1.34740e+01  1.19082e+01
3
# CELL(abcABC): 1322.94304  1322.94304  1322.94304    90.00000    90.00000    90.00000  Step:         800  Bead:      11 positions{angstrom}  cell{angstrom}
       E -3.26553e+01  2.03143e+01  5.10457e+00
       E  1.13900e+01  4.33877e+01 -1.13534e+01
       E -4.23059e+01  1.51778e+01  4.19274e+01
3
# CELL(abcABC): 1322.94304  1322.94304  1322.94304    90.00000    90.00000    90.00000  Step:         900  Bead:      11 positions{angstrom}  cell{angstrom}
       E  2.89879e+01 -8.06028e+00  7.56557e+00
       E -5.47798e+00  3.79442e+01 -2.24330e+01
       E -3.16210e+01  1.50741e+00  6.87407e+01
3
# CELL(abcABC): 1322.94304  1322.94304  1322.94304    90.00000    90.00000    90.00000  Step:        1000  Bead:      11 positions{angstrom}  cell{angstrom}
       E  3.70395e-01  9.04540e+00 -8.22923e+00
       E  7.95968e+00 -3.04064e+01 -5.35813e+01
       E  1.26521e+01  8.25163e+00  6.52117e+01
3
# CELL(abcABC): 1322.94304  1322.94304  1322.94304    90.00000    90.00000    90.00000  Step:        1100  Bead:      11 positions{angstrom}  cell{angstrom}
       E  1.64492e+01 -2.61240e+00 -5.00062e+01
       E  1.92306e+01 -1.94216e+01 -3.56087e+01
       E -5.37584e+00  2.01022e+01  3.43441e+01
3
# CELL(abcABC): 1322.94304  1322.94304  1322.94304    90.00000    90.00000    90.00000  Step:        1200  Bead:      11 positions{angstrom}  cell{angstrom}
       E  7.17549e+00 -1.95058e+01 -8.40590e+01
       E  2.70384e+01 -3.64681e+01 -3.53143e+01
       E  1.05582e+01  3.23745e+01  2.45152e+00
3
# CELL(abcABC): 1322.94304  1322.94304  1322.94304    90.00000    90.00000    90.00000  Step:        1300  Bead:      11 positions{angstrom}  cell{angstrom}
       E  2.94916e+00  1.46762e+00 -8.81190e+01
       E  1.91245e+01 -2.00399e+01 -4.78147e+01
       E -1.66979e+01  6.08191e+01  1.81526e+01
3
# CELL(abcABC): 1322.94304  1322.94304  1322.94304    90.00000    90.00000    90.00000  Step:        1400  Bead:      11 positions{angstrom}  cell{angstrom}
       E -1.57274e+00 -1.79831e+00 -9.32541e+01
       E  1.52840e+01 -1.93939e+01 -4.57213e+01
       E -6.40270e+01  3.98454e+01 -1.82996e+00
3
# CELL(abcABC): 1322.94304  1322.94304  1322.94304    90.00000    90.00000    90.00000  Step:        1500  Bead:      11 positions{angstrom}  cell{angstrom}
       E -1.79032e+01  1.78863e+01 -8.74599e+01
       E -1.72262e+01  9.63452e+00 -3.61110e+00
       E -7.07406e+01  1.38343e+01  5.14103e+00
3
# CELL(abcABC): 1322.94304  1322.94304  1322.94304    90.00000    90.00000    90.00000  Step:        1600  Bead:      11 positions{angstrom}  cell{angstrom}
       E  3.65072e+01  6.33212e+01 -7.25217e+01
       E -7.72076e+00  5.13667e+01  3.86939e+01
       E -4.80587e+01  4.67154e+01 -2.22409e+01
3
# CELL(abcABC): 1322.94304  1322.94304  1322.94304    90.00000    90.00000    90.00000  Step:        1700  Bead:      11 positions{angstrom}  cell{angstrom}
       E  4.28009e+01  1.69209e+01 -1.10884e+01
       E  3.76057e+01  7.93968e+01  3.84781e+01
       E -6.01997e+01  2.81922e+01 -5.83185e+00
3
# CELL(abcABC): 1322.94304  1322.94304  1322.94304    90.00000    90.00000    90.00000  Step:        1800  Bead:      11 positions{angstrom}  cell{angstrom}
       E  1.98902e+01  2.83927e+01  2.24672e+00
       E -2.91732e+01  7.40169e+01  2.50578e+01
       E -8.03504e+01  5.54293e+01  4.66273e+01
3
# CELL(abcABC): 1322.94304  1322.94304  1322.94304    90.00000    90.00000    90.00000  Step:        1900  Bead:      11 positions{angstrom}  cell{angstrom}
       E -3.61082e+01  3.74863e+00  5.66710e+01
       E -6.52855e+01  4.89506e+01  5.73542e+01
       E -8.24167e+01  5.49727e+01  1.33842e+01
3
# CELL(abcABC): 1322.94304  1322.94304  1322.94304    90.00000    90.00000    90.00000  Step:        2000  Bead:      11 positions{angstrom}  cell{angstrom}
       E -1.87511e+01 -5.74651e+00  4.30079e+01
       E -6.23730e+01  3.53177e+01  3.13015e+01
       E -1.04839e+02  4.23714e+01 -3.38406e+00
3
# CELL(abcABC): 1322.94304  1322.94304  1322.94304    90.00000    90.00000    90.00000  Step:        2100  Bead:      11 positions{angstrom}  cell{angstrom}
       E -1.59132e+01 -6.75373e+01  6.03594e+01
       E -2.73984e+01  3.71303e+01 -4.38805e+01
       E -6.93231e+01  5.39168e+01 -7.28434e+00
3
# CELL(abcABC): 1322.94304  1322.94304  1322.94304    90.00000    90.00000    90.00000  Step:        2200  Bead:      11 positions{angstrom}  cell{angstrom}
       E -4.49338e+01 -3.35664e+01  7.05490e+01
       E -1.18649e+01  9.34348e+00 -5.88190e+01
       E -3.41797e+01  6.95849e+01 -6.96023e+00
3
# CELL(abcABC): 1322.94304  1322.94304  1322.94304    90.00000    90.00000    90.00000  Step:        2300  Bead:      11 positions{angstrom}  cell{angstrom}
       E -2.17357e+01 -9.81556e+01  5.66182e+01
       E -3.39421e+00 -7.63875e+00 -1.31850e+01
       E -3.86332e+01  4.26836e+01  2.66740e+01
3
# CELL(abcABC): 1322.94304  1322.94304  1322.94304    90.00000    90.00000    90.00000  Step:        2400  Bead:      11 positions{angstrom}  cell{angstrom}
       E -1.56277e+01 -6.22902e+01  2.08337e+01
       E  7.60093e+00 -2.92708e+00 -1.91362e+01
       E -2.55182e+01  2.14607e+01  3.06290e+01
3
# CELL(abcABC): 1322.94304  1322.94304  1322.94304    90.00000    90.00000    90.00000  Step:        2500  Bead:      11 positions{angstrom}  cell{angstrom}
       E  4.28356e+00 -5.54404e+01  4.33553e+01
       E -1.69135e+01 -1.12636e+01 -4.05413e+01
       E  1.69282e+00 -2.03702e+00  2.52854e+01
3
# CELL(abcABC): 1322.94304  1322.94304  1322.94304    90.00000    90.00000    90.00000  Step:        2600  Bead:      11 positions{angstrom}  cell{angstrom}
       E -9.04603e+00 -1.60051e+01  9.47257e+00
       E -5.51773e+01 -2.39716e+01 -4.54963e+01
       E -1.63997e+01 -2.47743e+01  3.70769e+01
3
# CELL(abcABC): 1322.94304  1322.94304  1322.94304    90.00000    90.00000    90.00000  Step:        2700  Bead:      11 positions{angstrom}  cell{angstrom}
       E -8.51736e+00 -9.21119e+00  4.07685e+01
       E -5.65104e+01 -2.89054e+01 -3.01699e+01
       E -2.71932e+01 -2.45206e+01  2.01453e+01
3
# CELL(abcABC): 1322.94304  1322.94304  1322.94304    90.00000    90.00000    90.00000  Step:        2800  Bead:      11 positions{angstrom}  cell{angstrom}
       E -3.14935e+01 -3.07192e+01  1.97039e+01
       E -5.49975e+01 -7.17360e+01  1.08233e+01
       E  5.96803e-01  6.65237e+00  4.30980e+01
3
# CELL(abcABC): 1322.94304  1322.94304  1322.94304    90.00000    90.00000    90.00000  Step:        2900  Bead:      11 positions{angstrom}  cell{angstrom}
       E -5.07877e+01 -3.65584e+01  1.03134e+01
       E -2.04766e+01 -4.88272e+01  1.36035e+01
       E  2.94313e+01  2.01214e+01  4.10621e+00
3
# CELL(abcABC): 1322.94304  1322.94304  1322.94304    90.00000    90.00000    90.00000  Step:        3000  Bead:      11 positions{angstrom}  cell{angstrom}
       E -5.58930e+01 -4.22330e+01  4.75838e+00
       E -9.87759e+00 -7.53915e+01  2.86436e+01
       E  1.70930e+01  4.44476e+01 -1.02679e+01
3
# CELL(abcABC): 1322.94304  1322.94304  1322.94304    90.00000    90.00000    90.00000  Step:        3100  Bead:      11 positions{angstrom}  cell{angstrom}
       E -3.26849e+01 -1.71048e+01  3.07451e+01
       E -3.26708e+01 -3.88754e+01  5.56017e+01
       E -8.92953e+00  3.90284e+01  8.88558e+00
3
# CELL(abcABC): 1322.94304  1322.94304  1322.94304    90.00000    90.00000    90.00000  Step:        3200  Bead:      11 positions{angstrom}  cell{angstrom}
       E -3.19227e+01 -3.46100e+01  2.71424e+01
       E -4.62076e+01 -2.19181e+01  7.77400e+01
       E  7.76808e+00  7.19268e+01  3.38308e+01
3
# CELL(abcABC): 1322.94304  1322.94304  1322.94304    90.00000    90.00000    90.00000  Step:        3300  Bead:      11 positions{angstrom}  cell{angstrom}
       E -4.14848e+01 -4.37715e+01  1.43184e+01
       E -4.79881e+01 -3.61758e+01  6.21153e+01
       E -2.97505e+01  5.22336e+01  4.98286e+01
3
# CELL(abcABC): 1322.94304  1322.94304  1322.94304    90.00000    90.00000    90.00000  Step:        3400  Bead:      11 positions{angstrom}  cell{angstrom}
       E -4.61246e+01 -2.20765e+00  2.20630e+01
       E -2.03849e+00 -2.40200e+01  7.70484e+01
       E -5.01574e+01  3.87112e+01  5.98969e+01
3
# CELL(abcABC): 1322.94304  1322.94304  1322.94304    90.00000    90.00000    90.00000  Step:        3500  Bead:      11 positions{angstrom}  cell{angstrom}
       E -5.99744e+01  9.38662e+00  3.64908e+01
       E  2.59123e+01  1.48051e+01  4.94131e+01
       E -3.85393e+01  4.73527e+01  5.30212e+01
3
# CELL(abcABC): 1322.94304  1322.94304  1322.94304    90.00000    90.00000    90.00000  Step:        3600  Bead:      11 positions{angstrom}  cell{angstrom}
       E -7.31294e+01 -1.03671e+01  1.78526e+01
       E  1.87286e+01 -1.79576e+01 -9.71266e+00
       E -4.99335e+01  4.80512e+01  1.24177e+01
3
# CELL(abcABC): 1322.94304  1322.94304  1322.94304    90.00000    90.00000    90.00000  Step:        3700  Bead:      11 positions{angstrom}  cell{angstrom}
       E -6.48914e+01 -1.81351e+01  1.32284e+01
       E -1.08803e+01  2.88153e+00  2.94690e+01
       E -3.52652e+01  1.83015e+01  4.70077e+00
3
# CELL(abcABC): 1322.94304  1322.94304  1322.94304    90.00000    90.00000    90.00000  Step:        3800  Bead:      11 positions{angstrom}  cell{angstrom}
       E -7.63343e+01 -2.27811e+01 -4.75528e+01
       E -2.98396e+01 -1.37832e+01 -1.62516e+01
       E -2.34875e+01  8.32057e+00 -1.92022e+01
3
# CELL(abcABC): 1322.94304  1322.94304  1322.94304    90.00000    90.00000    90.00000  Step:        3900  Bead:      11 positions{angstrom}  cell{angstrom}
       E -8.32827e+01 -1.88327e+01 -2.60125e+01
       E -5.21735e+00 -5.56766e+00 -1.67469e+01
       E -3.28340e+01  3.28013e+01 -3.63760e+01
3
# CELL(abcABC): 1322.94304  1322.94304  1322.94304    90.00000    90.00000    90.00000  Step:        4000  Bead:      11 positions{angstrom}  cell{angstrom}
       E -1.00820e+02  3.49451e+01 -6.23273e+01
       E -6.43700e+01  9.52362e+00  9.49037e+00
       E -4.46906e+01  3.68021e+01 -5.99863e+00
3
# CELL(abcABC): 1322.94304  1322.94304  1322.94304    90.00000    90.00000    90.00000  Step:        4100  Bead:      11 positions{angstrom}  cell{angstrom}
       E -6.82019e+01  1.36976e+01 -5.07160e+01
       E -6.34701e+01  4.01413e+01  4.21001e+01
       E -3.03144e+01  4.11893e+01  5.70841e+01
3
# CELL(abcABC): 1322.94304  1322.94304  1322.94304    90.00000    90.00000    90.00000  Step:        4200  Bead:      11 positions{angstrom}  cell{angstrom}
       E -5.00241e+01  2.65470e+01 -5.67136e+01
       E -5.34296e+01  2.40442e+01  2.13924e+01
       E -2.06131e+01  5.90751e+01  8.91274e+01
3
# CELL(abcABC): 1322.94304  1322.94304  1322.94304    90.00000    90.00000    90.00000  Step:        4300  Bead:      11 positions{angstrom}  cell{angstrom}
       E -3.15285e+01  2.39210e+01 -7.40588e+01
       E -6.51029e+01  2.42733e+01  4.13443e+01
       E -1.54546e+01  5.21243e+01  3.27842e+01
3
# CELL(abcABC): 1322.94304  1322.94304  1322.94304    90.00000    90.00000    90.00000  Step:        4400  Bead:      11 positions{angstrom}  cell{angstrom}
       E -4.67350e+01 -8.99840e+00 -4.32817e+01
       E -6.83327e+01  6.33900e+01  1.62387e+01
       E -6.39736e+01  1.25233e+01 -4.26506e+00
3
# CELL(abcABC): 1322.94304  1322.94304  1322.94304    90.00000    90.00000    90.00000  Step:        4500  Bead:      11 positions{angstrom}  cell{angstrom}
       E -4.02308e+01  4.63939e+00 -4.09368e+01
       E -5.85801e+01  5.72017e+01 -2.82755e+01
       E -2.75693e+01 -4.99404e+00  2.56376e+01
3
# CELL(abcABC): 1322.94304  1322.94304  1322.94304    90.00000    90.00000    90.00000  Step:        4600  Bead:      11 positions{angstrom}  cell{angstrom}
       E  2.51135e+01  5.94112e+00 -2.52768e+01
       E -7.08028e+01  1.00464e+01 -4.98161e+01
       E  1.94656e+01 -2.25127e+01  4.16819e+01
3
# CELL(abcABC): 1322.94304  1322.94304  1322.94304    90.00000    90.00000    90.00000  Step:        4700  Bead:      11 positions{angstrom}  cell{angstrom}
       E  3.40072e+01  3.16702e+01 -2.22334e+01
       E -5.89644e+01  2.65596e+01 -6.01875e+01
       E  4.86594e+01  1.11410e+01 -1.39506e+00
3
# CELL(abcABC): 1322.94304  1322.94304  1322.94304    90.00000    90.00000    90.00000  Step:        4800  Bead:      11 positions{angstrom}  cell{angstrom}
       E  2.30965e+01  6.27270e+01  4.75366e+00
       E -5.98770e+01  3.48275e+01 -5.14925e+01
       E  3.69191e+01  3.39022e+01 -2.20178e+01
3
# CELL(abcABC): 1322.94304  1322.94304  1322.94304    90.00000    90.00000    90.00000  Step:        4900  Bead:      11 positions{angstrom}  cell{angstrom}
       E  8.45257e+00  8.26035e+00  8.36922e+00
       E -2.26597e+01 -7.06084e+00 -3.65396e+01
       E  1.37582e+01  1.03684e+01 -2.48730e+01
3
# CELL(abcABC): 1322.94304  1322.94304  1322.94304    90.00000    90.00000    90.00000  Step:        5000  Bead:      11 positions{angstrom}  cell{angstrom}
       E -1.75042e+01 -2.75409e+01  3.46212e+00
       E -2.07598e+01  2.21802e+01 -4.57150e+01
       E -6.64449e+00 -2.13807e+01 -2.73441e+01
3
# CELL(abcABC): 1322.94304  1322.94304  1322.94304    90.00000    90.00000    90.00000  Step:        5100  Bead:      11 positions{angstrom}  cell{angstrom}
       E -1.51249e+01 -2.61196e+01  4.86594e+01
       E  4.26904e+00  1.41759e+01 -2.13161e+01
       E -7.09789e+00 -2.27296e+01  1.15494e+00
3
# CELL(abcABC): 1322.94304  1322.94304  1322.94304    90.00000    90.00000    90.00000  Step:        5200  Bead:      11 positions{angstrom}  cell{angstrom}
       E -1.27823e+01 -2.78059e+00  4.42225e+01
       E -4.57446e+00  4.83829e+01 -1.83656e+01
       E  1.34327e+01 -1.87323e+01  9.27257e+00
3
# CELL(abcABC): 1322.94304  1322.94304  1322.94304    90.00000    90.00000    90.00000  Step:        5300  Bead:      11 positions{angstrom}  cell{angstrom}
       E -2.04627e+01  3.15113e+01  3.98162e+01
       E  1.02618e+01  3.53067e+01 -3.55739e+01
       E  8.01732e+00  3.56265e+01  3.90507e+01
3
# CELL(abcABC): 1322.94304  1322.94304  1322.94304    90.00000    90.00000    90.00000  Step:        5400  Bead:      11 positions{angstrom}  cell{angstrom}
       E -1.08489e+01  2.09039e+01  5.01398e+01
       E  1.51729e+01  2.79372e+01 -5.32267e+01
       E -3.58988e+00  2.30151e+01  5.53040e+01
3
# CELL(abcABC): 1322.94304  1322.94304  1322.94304    90.00000    90.00000    90.00000  Step:        5500  Bead:      11 positions{angstrom}  cell{angstrom}
       E -2.60184e+01  2.34350e+01  5.54909e+01
       E -7.57120e+00  1.09066e+01 -3.55529e+01
       E -2.91030e+01 -1.47673e+01  3.19556e+01
3
# CELL(abcABC): 1322.94304  1322.94304  1322.94304    90.00000    90.00000    90.00000  Step:        5600  Bead:      11 positions{angstrom}  cell{angstrom}
       E -3.31371e+01  1.28568e+00  3.79960e+01
       E -4.92083e+01  1.52812e+01 -4.35045e+01
       E -4.67180e+01 -5.59493e+00  1.22111e+01
3
# CELL(abcABC): 1322.94304  1322.94304  1322.94304    90.00000    90.00000    90.00000  Step:        5700  Bead:      11 positions{angstrom}  cell{angstrom}
       E -4.84728e+00  8.34096e+00  4.41196e+00
       E -2.32277e+01  3.72605e+01  2.86570e+00
       E -1.28358e+01  7.36358e+00  1.62728e+01
3
# CELL(abcABC): 1322.94304  1322.94304  1322.94304    90.00000    90.00000    90.00000  Step:        5800  Bead:      11 positions{angstrom}  cell{angstrom}
       E  6.77220e+00 -1.13476e+00 -1.26551e+00
       E -4.76751e+01  3.78738e+01 -1.70370e+01
       E  3.70044e+00  3.49460e+01 -9.48192e+00
3
# CELL(abcABC): 1322.94304  1322.94304  1322.94304    90.00000    90.00000    90.00000  Step:        5900  Bead:      11 positions{angstrom}  cell{angstrom}
       E  1.96586e+01 -3.83775e+01 -2.99818e-01
       E -3.69605e+01  1.30117e-01 -4.03833e+01
       E  1.91401e+01  2.47130e+01  2.46133e+01
3
# CELL(abcABC): 1322.94304  1322.94304  1322.94304    90.00000    90.00000    90.00000  Step:        6000  Bead:      11 positions{angstrom}  cell{angstrom}
       E  1.71257e+01 -2.49759e+01 -1.88124e+01
       E -2.12872e+01 -2.81158e+00 -4.12299e+00
       E  6.44133e+00  2.51981e+01  1.44845e+01
3
# CELL(abcABC): 1322.94304  1322.94304  1322.94304    90.00000    90.00000    90.00000  Step:        6100  Bead:      11 positions{angstrom}  cell{angstrom}
       E  9.42809e+00 -6.48832e+01 -5.07061e+01
       E  7.55675e+00 -1.18270e+01  3.33914e+01
       E -2.05813e+01  1.21617e+01 -9.86053e+00
3
# CELL(abcABC): 1322.94304  1322.94304  1322.94304    90.00000    90.00000    90.00000  Step:        6200  Bead:      11 positions{angstrom}  cell{angstrom}
       E  5.14718e+00 -3.02644e+01 -7.32667e+01
       E  7.46947e+01  3.87640e+01  5.59799e+00
       E  3.85161e+01  2.80162e+01 -2.54838e+01
3
# CELL(abcABC): 1322.94304  1322.94304  1322.94304    90.00000    90.00000    90.00000  Step:        6300  Bead:      11 positions{angstrom}  cell{angstrom}
       E  1.50691e+01 -4.94493e+01 -6.95053e+01
       E  8.75374e+01 -1.90713e+01 -4.76332e+01
       E  5.10157e+01  4.25673e+00 -4.16773e+01
3
# CELL(abcABC): 1322.94304  1322.94304  1322.94304    90.00000    90.00000    90.00000  Step:        6400  Bead:      11 positions{angstrom}  cell{angstrom}
       E  3.46587e+01 -7.50549e+01 -6.04737e+01
       E  9.64582e+01 -1.09533e+01 -2.89958e+01
       E  1.21825e+01 -4.71152e+00 -1.11051e+01
3
# CELL(abcABC): 1322.94304  1322.94304  1322.94304    90.00000    90.00000    90.00000  Step:        6500  Bead:      11 positions{angstrom}  cell{angstrom}
       E -7.28726e+00 -9.65083e+01 -1.13757e+02
       E  1.93773e+01 -3.30379e+01 -9.26455e+00
       E  1.68809e+01 -3.26658e+01  3.09643e+00
3
# CELL(abcABC): 1322.94304  1322.94304  1322.94304    90.00000    90.00000    90.00000  Step:        6600  Bead:      11 positions{angstrom}  cell{angstrom}
       E -3.27694e+01 -7.59246e+01 -9.18124e+01
       E  3.20033e+01 -3.45806e+01  3.00792e+01
       E  2.75962e+01 -1.49757e+01  1.07021e-01
3
# CELL(abcABC): 1322.94304  1322.94304  1322.94304    90.00000    90.00000    90.00000  Step:        6700  Bead:      11 positions{angstrom}  cell{angstrom}
       E -1.07154e+01 -7.33628e+01 -7.99302e+01
       E  1.74655e+01 -4.75662e+01  2.10483e+01
       E  4.90625e+00  9.62256e+00 -1.89844e+01
3
# CELL(abcABC): 1322.94304  1322.94304  1322.94304    90.00000    90.00000    90.00000  Step:        6800  Bead:      11 positions{angstrom}  cell{angstrom}
       E -4.29248e+00 -5.32820e+01 -3.55329e+01
       E  5.64785e+01 -2.29401e+01  3.15281e+01
       E  2.27096e+01  5.35145e+01 -3.96450e+01
3
# CELL(abcABC): 1322.94304  1322.94304  1322.94304    90.00000    90.00000    90.00000  Step:        6900  Bead:      11 positions{angstrom}  cell{angstrom}
       E  1.76297e+00 -4.69340e+01 -4.63900e+01
       E  6.19471e+00 -2.34178e+01  2.80389e-01
       E  1.80088e+01  3.56247e+01 -2.81961e+01
3
# CELL(abcABC): 1322.94304  1322.94304  1322.94304    90.00000    90.00000    90.00000  Step:        7000  Bead:      11 positions{angstrom}  cell{angstrom}
       E -2.09626e+01 -6.28299e+01 -4.16844e+01
       E -3.61959e+00 -5.29667e+00  4.04725e+01
       E  2.28845e+01  3.93811e+01  1.55372e+01
3
# CELL(abcABC): 1322.94304  1322.94304  1322.94304    90.00000    90.00000    90.00000  Step:        7100  Bead:      11 positions{angstrom}  cell{angstrom}
       E  6.92310e+00 -3.71311e+01 -2.19143e+01
       E -1.19730e+01 -2.66879e+01  5.50378e+01
       E  1.82109e+01  6.62119e+01  2.78740e+01
3
# CELL(abcABC): 1322.94304  1322.94304  1322.94304    90.00000    90.00000    90.00000  Step:        7200  Bead:      11 positions{angstrom}  cell{angstrom}
       E  4.19130e+01 -3.47639e+01 -3.60686e+00
       E -3.81648e+01 -2.25221e+01  2.73944e+01
       E  3.89653e+01  4.84250e+01  3.95111e+00
3
# CELL(abcABC): 1322.94304  1322.94304  1322.94304    90.00000    90.00000    90.00000  Step:        7300  Bead:      11 positions{angstrom}  cell{angstrom}
       E  6.92873e+00 -3.78614e+01 -3.44091e+01
       E  1.38320e+00  5.09188e+01  3.71231e+01
       E  5.52742e+01  2.97927e+01 -2.55696e+01
3
# CELL(abcABC): 1322.94304  1322.94304  1322.94304    90.00000    90.00000    90.00000  Step:        7400  Bead:      11 positions{angstrom}  cell{angstrom}
       E -2.77553e+00 -3.68017e+01 -4.00158e+01
       E  8.87617e+00  3.31456e+01  4.01846e+00
       E  2.22186e+01  6.89400e+01 -5.15484e+00
3
# CELL(abcABC): 1322.94304  1322.94304  1322.94304    90.00000    90.00000    90.00000  Step:        7500  Bead:      11 positions{angstrom}  cell{angstrom}
       E -1.48503e+01 -7.42865e+01 -4.53922e+01
       E  5.41713e+00 -1.19703e+01 -7.80933e+00
       E  3.28055e+01  3.93644e+01  2.95966e+00
3
# CELL(abcABC): 1322.94304  1322.94304  1322.94304    90.00000    90.00000    90.00000  Step:        7600  Bead:      11 positions{angstrom}  cell{angstrom}
       E  1.06751e+01 -7.20795e+01 -2.78548e+01
       E  2.02570e+01 -5.23284e+01 -4.80473e+01
       E  2.13312e+01  2.77849e+01  2.74007e+01
3
# CELL(abcABC): 1322.94304  1322.94304  1322.94304    90.00000    90.00000    90.00000  Step:        7700  Bead:      11 positions{angstrom}  cell{angstrom}
       E  1.84357e+01 -3.45257e+01 -1.07637e+01
       E  1.22486e+01 -4.65154e+01 -5.77427e+01
       E -8.52664e+00  2.04699e+01 -2.47378e+01
3
# CELL(abcABC): 1322.94304  1322.94304  1322.94304    90.00000    90.00000    90.00000  Step:        7800  Bead:      11 positions{angstrom}  cell{angstrom}
       E  3.54137e+01 -2.53460e+01 -1.82596e+01
       E -1.31897e+01 -5.64917e+01 -5.73676e+01
       E  2.78835e+01 -1.72705e+01 -6.22354e+01
3
# CELL(abcABC): 1322.94304  1322.94304  1322.94304    90.00000    90.00000    90.00000  Step:        7900  Bead:      11 positions{angstrom}  cell{angstrom}
       E  2.22912e+01 -1.21869e+01 -3.33235e+01
       E  1.91472e+01 -1.44282e+01 -4.36061e+01
       E -1.35308e+01  1.78786e+01 -5.68638e+01
3
# CELL(abcABC): 1322.94304  1322.94304  1322.94304    90.00000    90.00000    90.00000  Step:        8000  Bead:      11 positions{angstrom}  cell{angstrom}
       E  2.10330e+01 -1.10627e+01 -3.32869e+01
       E  8.82842e+00  7.51367e-01 -1.46573e+01
       E -1.45723e+01  3.25967e+01 -3.70869e+01
3
# CELL(abcABC): 1322.94304  1322.94304  1322.94304    90.00000    90.00000    90.00000  Step:        8100  Bead:      11 positions{angstrom}  cell{angstrom}
       E  4.84938e+01 -8.86375e+00 -6.45523e+01
       E  1.25216e+01  2.21112e+01  5.14257e+00
       E -3.86441e+00  5.39635e+00 -9.24417e+00
3
# CELL(abcABC): 1322.94304  1322.94304  1322.94304    90.00000    90.00000    90.00000  Step:        8200  Bead:      11 positions{angstrom}  cell{angstrom}
       E  4.32759e+01  4.87309e+01 -6.48034e+01
       E -3.02877e+01  1.70572e+01  1.00508e+01
       E -7.33784e+00 -3.13567e+01  2.38145e+01
3
# CELL(abcABC): 1322.94304  1322.94304  1322.94304    90.00000    90.00000    90.00000  Step:        8300  Bead:      11 positions{angstrom}  cell{angstrom}
       E  4.24025e+01  1.61148e+01 -5.69218e+01
       E -8.18885e+00  5.12977e+01  3.28140e+01
       E  2.15417e+01 -5.85416e+01  3.90719e+01
3
# CELL(abcABC): 1322.94304  1322.94304  1322.94304    90.00000    90.00000    90.00000  Step:        8400  Bead:      11 positions{angstrom}  cell{angstrom}
       E  2.28680e+01  2.75891e+00 -3.85751e+01
       E  2.53011e+01  5.97973e+01  1.41728e+01
       E  2.37763e+01 -4.89323e+01  5.48538e+01
3
# CELL(abcABC): 1322.94304  1322.94304  1322.94304    90.00000    90.00000    90.00000  Step:        8500  Bead:      11 positions{angstrom}  cell{angstrom}
       E -3.16511e+01 -1.99173e+01 -1.43406e+01
       E  3.85061e+01  3.51435e+01  3.71490e+00
       E  1.34289e+01 -2.34833e+01  2.73276e+01
3
# CELL(abcABC): 1322.94304  1322.94304  1322.94304    90.00000    90.00000    90.00000  Step:        8600  Bead:      11 positions{angstrom}  cell{angstrom}
       E -5.70833e+01 -7.27160e-01 -9.85334e+00
       E  1.13327e+01  3.78664e+01 -6.32937e+01
       E  1.05868e+01 -1.96707e+01  4.23954e+01
3
# CELL(abcABC): 1322.94304  1322.94304  1322.94304    90.00000    90.00000    90.00000  Step:        8700  Bead:      11 positions{angstrom}  cell{angstrom}
       E -2.90704e+01  2.24496e+01 -1.25914e+01
       E -1.66207e+01  3.92088e+01 -2.85359e+01
       E -3.23627e+00 -3.08337e+01  3.42923e+01
3
# CELL(abcABC): 1322.94304  1322.94304  1322.94304    90.00000    90.00000    90.00000  Step:        8800  Bead:      11 positions{angstrom}  cell{angstrom}
       E -1.57805e+01  3.33861e+01  1.57957e+01
       E  7.83255e+00  6.70059e+00  8.01304e+00
       E  3.14573e+01 -7.40133e+01  5.74409e+01
3
# CELL(abcABC): 1322.94304  1322.94304  1322.94304    90.00000    90.00000    90.00000  Step:        8900  Bead:      11 positions{angstrom}  cell{angstrom}
       E -1.99701e+01 -1.69909e+01  2.19364e+01
       E  1.55073e+00 -2.34862e+01  3.16595e+01
       E -2.43830e+00 -5.52455e+01  5.17912e+01
3
# CELL(abcABC): 1322.94304  1322.94304  1322.94304    90.00000    90.00000    90.00000  Step:        9000  Bead:      11 positions{angstrom}  cell{angstrom}
       E -1.86541e+01  1.51835e+01  1.94075e+01
       E -1.55398e+01  1.15101e+00  5.42016e+01
       E  3.56310e+01 -4.10675e+01  5.08388e+00
3
# CELL(abcABC): 1322.94304  1322.94304  1322.94304    90.00000    90.00000    90.00000  Step:        9100  Bead:      11 positions{angstrom}  cell{angstrom}
       E  1.50509e+01  2.96331e+01 -1.70968e+01
       E -3.21088e+01  1.37338e+01  6.66512e+01
       E  2.53010e+01 -1.28734e+01  3.50406e+01
3
# CELL(abcABC): 1322.94304  1322.94304  1322.94304    90.00000    90.00000    90.00000  Step:        9200  Bead:      11 positions{angstrom}  cell{angstrom}
       E  8.78353e+00  3.25593e+01  1.06262e+01
       E -2.11510e+01  7.01571e+00  4.62653e+01
       E  1.08479e+01 -7.50896e+01  2.32068e+01
3
# CELL(abcABC): 1322.94304  1322.94304  1322.94304    90.00000    90.00000    90.00000  Step:        9300  Bead:      11 positions{angstrom}  cell{angstrom}
       E -1.18089e+00  4.21984e+01 -1.96928e+01
       E -1.05995e+00 -1.91805e+00  1.70027e+01
       E  2.05749e+01 -4.88584e+01  1.89761e+01
3
# CELL(abcABC): 1322.94304  1322.94304  1322.94304    90.00000    90.00000    90.00000  Step:        9400  Bead:      11 positions{angstrom}  cell{angstrom}
       E  2.66938e+01  8.20824e+01 -6.14502e+01
       E -2.42572e+01 -4.07457e+01  2.93303e+01
       E  7.40232e+01 -5.78335e+01  4.61007e+00
3
# CELL(abcABC): 1322.94304  1322.94304  1322.94304    90.00000    90.00000    90.00000  Step:        9500  Bead:      11 positions{angstrom}  cell{angstrom}
       E  1.44584e+01  6.76631e+01 -3.95283e+01
       E -1.41048e+00 -5.00951e+01  5.92299e+01
       E  2.33093e+01 -4.64620e+01  9.65375e+00
3
# CELL(abcABC): 1322.94304  1322.94304  1322.94304    90.00000    90.00000    90.00000  Step:        9600  Bead:      11 positions{angstrom}  cell{angstrom}
       E  5.27916e+00  5.99956e+01 -2.23305e+01
       E  4.54627e+01 -5.93767e+01  2.37425e+01
       E  2.49897e+01 -2.77929e+01 -2.30434e+00
3
# CELL(abcABC): 1322.94304  1322.94304  1322.94304    90.00000    90.00000    90.00000  Step:        9700  Bead:      11 positions{angstrom}  cell{angstrom}
       E -7.52438e+00 -1.13177e+01 -4.63493e+01
       E  8.41844e+01 -5.59745e+01  2.31969e+01
       E  3.12381e+01 -1.78961e+01 -2.88177e+00
3
# CELL(abcABC): 1322.94304  1322.94304  1322.94304    90.00000    90.00000    90.00000  Step:        9800  Bead:      11 positions{angstrom}  cell{angstrom}
       E -4.16138e+00 -5.88938e+01 -6.72337e+01
       E  4.63424e+01 -9.35824e+01 -5.11727e+00
       E  9.56700e+00 -9.42329e+00  4.74442e+00
3