3
# CELL(abcABC): 1322.94304  1322.94304  1322.94304    90.00000    90.00000    90.00000  Step:           0  Bead:      20 positions{angstrom}  cell{angstrom}
       E  0.00000e+00  0.00000e+00  0.00000e+00
       E  0.00000e+00  0.00000e+00  0.00000e+00
       E  0.00000e+00  0.00000e+00  0.00000e+00
3
# CELL(abcABC): 1322.94304  1322.94304  1322.94304    90.00000    90.00000    90.00000  Step:         100  Bead:      20 positions{angstrom}  cell{angstrom}
       E  1.17549e+01 -8.70157e+00 -2.62965e+01
       E -2.29177e+01 -5.70360e+01 -1.70611e+01
       E -1.17306e+01  1.16679e+01 -1.16801e+01
3
# CELL(abcABC): 1322.94304  1322.94304  1322.94304    90.00000    90.00000    90.00000  Step:         200  Bead:      20 positions{angstrom}  cell{angstrom}
       E  2.38709e+01 -8.56881e+00 -4.63225e+00
       E  1.56419e+01 -4.19142e+01  4.16034e+00
       E  3.13253e+01  4.94007e+01 -1.34736e+01
3
# CELL(abcABC): 1322.94304  1322.94304  1322.94304    90.00000    90.00000    90.00000  Step:         300  Bead:      20 positions{angstrom}  cell{angstrom}
       E  2.36658e+01  8.00986e+00  4.15425e+01
       E  6.10483e-01 -1.75602e+00  3.10175e+01
       E -8.81933e+00  3.96128e+01 -5.12720e+01
3
# CELL(abcABC): 1322.94304  1322.94304  1322.94304    90.00000    90.00000    90.00000  Step:         400  Bead:      20 positions{angstrom}  cell{angstrom}
       E -3.86618e+01  2.61315e+01 -1.07707e+01
       E  1.15556e+01  1.77911e+01 -2.25658e+01
       E -7.67775e+00  1.64918e+01 -7.03750e+00
3
# CELL(abcABC): 1322.94304  1322.94304  1322.94304    90.00000    90.00000    90.00000  Step:         500  Bead:      20 positions{angstrom}  cell{angstrom}
       E -8.19964e+00 -1.53623e+01 -2.23613e+01
       E -4.45234e+00 -3.22458e+00  1.57014e+01
       E  1.83837e+01 -4.88758e+00  1.74332e+01
3
# CELL(abcABC): 1322.94304  1322.94304  1322.94304    90.00000    90.00000    90.00000  Step:         600  Bead:      20 positions{angstrom}  cell{angstrom}
       E -1.40767e+00  1.53754e+01 -1.94672e+01
       E  6.72956e+00  2.90003e+00 -1.88670e+01
       E -4.29980e+00 -3.35305e+01  1.35114e+01
3
# CELL(abcABC): 1322.94304  1322.94304  1322.94304    90.00000    90.00000    90.00000  Step:         700  Bead:      20 positions{angstrom}  cell{angstrom}
       E  1.38727e+01  2.14811e+01 -3.54032e+00
       E  3.12763e+01  1.44720e+01 -2.13136e+00
       E  1.21620e+00  6.94539e+00  3.01647e+01
3
# CELL(abcABC): 1322.94304  1322.94304  1322.94304    90.00000    90.00000    90.00000  Step:         800  Bead:      20 positions{angstrom}  cell{angstrom}
       E -7.85714e+00  6.66274e-01  8.42894e+00
       E  4.89117e+01  4.76740e+00 -4.23312e+00
       E -2.38184e+01 -3.38712e+01  7.08075e+01
3
# CELL(abcABC): 1322.94304  1322.94304  1322.94304    90.00000    90.00000    90.00000  Step:         900  Bead:      20 positions{angstrom}  cell{angstrom}
       E -2.26574e+01  2.32002e+01 -3.68570e+01
       E  1.07802e+01  6.27908e-01 -2.60189e+01
       E -3.42555e+01 -3.51560e+01  7.34607e+01
3
# CELL(abcABC): 1322.94304  1322.94304  1322.94304    90.00000    90.00000    90.00000  Step:        1000  Bead:      20 positions{angstrom}  cell{angstrom}
       E  2.05634e+01  2.27221e+01 -1.86974e+01
       E -3.29362e+01  3.16844e+00 -2.78718e+01
       E -1.35127e+01 -2.30798e+01  4.50766e+01
3
# CELL(abcABC): 1322.94304  1322.94304  1322.94304    90.00000    90.00000    90.00000  Step:        1100  Bead:      20 positions{angstrom}  cell{angstrom}
       E -6.00323e+00 -1.99222e+01 -3.33122e+01
       E -8.24660e+00  1.48660e+01 -1.44557e+01
       E -2.59574e+00  3.05413e+01  3.13387e+01
3
# CELL(abcABC): 1322.94304  1322.94304  1322.94304    90.00000    90.00000    90.00000  Step:        1200  Bead:      20 positions{angstrom}  cell{angstrom}
       E -1.88300e+01  2.07760e+01 -5.53860e+01
       E  9.12570e+00 -1.99197e+01  2.14115e+01
       E  1.80962e+01  4.27436e+01 -3.35873e+01
3
# CELL(abcABC): 1322.94304  1322.94304  1322.94304    90.00000    90.00000    90.00000  Step:        1300  Bead:      20 positions{angstrom}  cell{angstrom}
       E -3.06705e+01  2.91601e+01 -7.64082e+01
       E  2.87127e+01 -1.60394e+01 -1.17043e+01
       E  2.38636e+01  1.35177e+01 -2.17882e+01
3
# CELL(abcABC): 1322.94304  1322.94304  1322.94304    90.00000    90.00000    90.00000  Step:        1400  Bead:      20 positions{angstrom}  cell{angstrom}
       E -5.12976e+00  1.71895e+01 -5.72254e+01
       E  2.86151e+00  2.19399e+01 -9.76339e+00
       E  2.63783e+01 -7.42599e+00 -1.14776e+01
3
# CELL(abcABC): 1322.94304  1322.94304  1322.94304    90.00000    90.00000    90.00000  Step:        1500  Bead:      20 positions{angstrom}  cell{angstrom}
       E -7.58570e+00  4.17298e+01 -2.49634e+01
       E -4.12625e+01  4.47324e+01  1.37645e+01
       E -1.14397e+01 -1.53934e+01 -4.58651e+00
3
# CELL(abcABC): 1322.94304  1322.94304  1322.94304    90.00000    90.00000    90.00000  Step:        1600  Bead:      20 positions{angstrom}  cell{angstrom}
       E -1.35173e+01  7.04068e+00 -2.17427e+01
       E -3.70955e+01  4.40057e+01  1.82976e+01
       E  2.88144e+01  1.44875e+00 -3.32247e+01
3
# CELL(abcABC): 1322.94304  1322.94304  1322.94304    90.00000    90.00000    90.00000  Step:        1700  Bead:      20 positions{angstrom}  cell{angstrom}
       E -6.26303e+00  5.06684e+01 -5.25232e+00
       E -4.01684e+01  6.01662e+01  4.46536e+01
       E -1.22797e+01  3.84278e+01  1.13006e+01
3
# CELL(abcABC): 1322.94304  1322.94304  1322.94304    90.00000    90.00000    90.00000  Step:        1800  Bead:      20 positions{angstrom}  cell{angstrom}
       E  3.55544e+00  4.17262e+01  3.99728e+01
       E -6.66494e+01  9.40874e+01  2.52149e+01
       E -3.60707e+01  2.26969e+01  3.20280e+01
3
# CELL(abcABC): 1322.94304  1322.94304  1322.94304    90.00000    90.00000    90.00000  Step:        1900  Bead:      20 positions{angstrom}  cell{angstrom}
       E  1.52935e+01  7.47071e-01  3.96857e+01
       E -5.34269e+01  5.69374e+01  2.40535e+01
       E -9.72882e+01  1.85325e+01  7.22668e+00
3
# CELL(abcABC): 1322.94304  1322.94304  1322.94304    90.00000    90.00000    90.00000  Step:        2000  Bead:      20 positions{angstrom}  cell{angstrom}
       E -2.09141e+01 -6.48090e+01  4.24111e+01
       E -7.11561e+01  2.61707e+01  3.77538e+01
       E -6.29950e+01  4.24016e+01  1.25813e+01
3
# CELL(abcABC): 1322.94304  1322.94304  1322.94304    90.00000    90.00000    90.00000  Step:        2100  Bead:      20 positions{angstrom}  cell{angstrom}
       E -4.10483e+01 -4.14978e+01  4.65170e+01
       E -6.76991e+01  3.13018e+01  1.35176e+01
       E -8.06783e+01  8.30440e+01  3.96637e+01
3
# CELL(abcABC): 1322.94304  1322.94304  1322.94304    90.00000    90.00000    90.00000  Step:        2200  Bead:      20 positions{angstrom}  cell{angstrom}
       E -1.35540e+01 -5.23084e+01  5.17408e+01
       E -3.58573e+01 -2.36531e+01 -4.26671e+00
       E -6.65378e+01  4.21345e+01 -2.08739e+00
3
# CELL(abcABC): 1322.94304  1322.94304  1322.94304    90.00000    90.00000    90.00000  Step:        2300  Bead:      20 positions{angstrom}  cell{angstrom}
       E -5.45325e+01 -3.86111e+01  5.41711e+01
       E -2.12124e+01  3.62488e-01  1.57504e+01
       E -3.17652e+01  2.16187e+00  6.29635e+00
3
# CELL(abcABC): 1322.94304  1322.94304  1322.94304    90.00000    90.00000    90.00000  Step:        2400  Bead:      20 positions{angstrom}  cell{angstrom}
       E -4.65924e+01 -3.30304e+01  3.09323e+01
       E -3.59482e+01  2.62567e+01  2.20031e+00
       E -5.03703e-01 -1.01130e+01  1.57004e+01
3
# CELL(abcABC): 1322.94304  1322.94304  1322.94304    90.00000    90.00000    90.00000  Step:        2500  Bead:      20 positions{angstrom}  cell{angstrom}
       E -4.75379e+01 -2.32917e+01  2.25039e+01
       E -3.16807e+01  4.77928e+00 -1.47084e+00
       E  2.53155e+01 -3.88076e+01  2.13594e+01
3
# CELL(abcABC): 1322.94304  1322.94304  1322.94304    90.00000    90.00000    90.00000  Step:        2600  Bead:      20 positions{angstrom}  cell{angstrom}
       E -5.32463e+01 -7.98395e+00  3.67650e+01
       E -3.46941e+01 -2.51374e+01 -2.30015e+01
       E  5.80138e+00 -2.98714e+01  4.46741e+01
3
# CELL(abcABC): 1322.94304  1322.94304  1322.94304    90.00000    90.00000    90.00000  Step:        2700  Bead:      20 positions{angstrom}  cell{angstrom}
       E -4.79388e+01 -3.18243e+00  6.31817e+01
       E -7.22750e+01 -1.68755e+01  5.37092e+00
       E  1.32585e+01 -3.97295e+01  1.50784e+01
3
# CELL(abcABC): 1322.94304  1322.94304  1322.94304    90.00000    90.00000    90.00000  Step:        2800  Bead:      20 positions{angstrom}  cell{angstrom}
       E -6.03365e+01 -6.97624e+00  7.36467e+01
       E -8.26676e+01 -4.58117e+01  7.20684e+00
       E -3.65026e+00 -3.44991e+01 -8.79430e+00
3
# CELL(abcABC): 1322.94304  1322.94304  1322.94304    90.00000    90.00000    90.00000  Step:        2900  Bead:      20 positions{angstrom}  cell{angstrom}
       E -9.76186e+01 -1.77250e+01  4.22083e+01
       E -9.53176e+01 -5.14489e+01  5.02009e+01
       E -4.71323e+00 -1.58141e+01 -2.11088e+01
3
# CELL(abcABC): 1322.94304  1322.94304  1322.94304    90.00000    90.00000    90.00000  Step:        3000  Bead:      20 positions{angstrom}  cell{angstrom}
       E -3.59311e+01 -3.47078e+01  6.18886e+01
       E -7.00739e+01 -4.44959e+01  3.86928e+01
       E -1.17724e-01  1.25356e+01 -8.77679e+00
3
# CELL(abcABC): 1322.94304  1322.94304  1322.94304    90.00000    90.00000    90.00000  Step:        3100  Bead:      20 positions{angstrom}  cell{angstrom}
       E -7.31133e+01 -3.04330e+01  6.77063e+01
       E -6.22376e+01 -2.94211e+01  3.81348e+01
       E  4.48240e+01  3.08795e+01  1.77531e+01
3
# CELL(abcABC): 1322.94304  1322.94304  1322.94304    90.00000    90.00000    90.00000  Step:        3200  Bead:      20 positions{angstrom}  cell{angstrom}
       E -6.59697e+01  7.83511e+00  1.06360e+01
       E -8.74293e+01  5.90418e+00  4.95151e+01
       E  3.83879e+01  5.00560e+01  1.99818e+01
3
# CELL(abcABC): 1322.94304  1322.94304  1322.94304    90.00000    90.00000    90.00000  Step:        3300  Bead:      20 positions{angstrom}  cell{angstrom}
       E -4.66180e+01 -8.07292e+00  5.12006e+01
       E -7.00347e+01 -1.16776e+01  5.96273e+01
       E  2.30418e-01  5.67689e+01 -1.57233e+01
3
# CELL(abcABC): 1322.94304  1322.94304  1322.94304    90.00000    90.00000    90.00000  Step:        3400  Bead:      20 positions{angstrom}  cell{angstrom}
       E -9.96822e+01 -7.23223e+00  8.19770e+01
       E -2.13866e+01  1.07256e+01  3.73309e+01
       E  1.12024e+01  2.04083e+01  1.89387e+01
3
# CELL(abcABC): 1322.94304  1322.94304  1322.94304    90.00000    90.00000    90.00000  Step:        3500  Bead:      20 positions{angstrom}  cell{angstrom}
       E -1.26054e+02  1.45483e+01  6.44584e+01
       E -7.88027e+00  3.31236e+01  4.41232e+01
       E -1.68205e+01  8.13149e+00  3.72756e+01
3
# CELL(abcABC): 1322.94304  1322.94304  1322.94304    90.00000    90.00000    90.00000  Step:        3600  Bead:      20 positions{angstrom}  cell{angstrom}
       E -9.40634e+01 -1.49353e+01  3.04272e+01
       E  2.58602e+01 -1.89463e+00  4.59141e+01
       E -2.69783e+01 -3.28083e-01  2.85344e+01
3
# CELL(abcABC): 1322.94304  1322.94304  1322.94304    90.00000    90.00000    90.00000  Step:        3700  Bead:      20 positions{angstrom}  cell{angstrom}
       E -8.68109e+01 -6.63970e-01 -3.96310e+01
       E  5.57021e+00  5.12331e+00  8.63434e+00
       E -6.35696e+01 -2.21813e+01 -6.28700e+00
3
# CELL(abcABC): 1322.94304  1322.94304  1322.94304    90.00000    90.00000    90.00000  Step:        3800  Bead:      20 positions{angstrom}  cell{angstrom}
       E -8.27564e+01 -2.52080e+01 -1.81881e+01
       E  5.03404e+00 -1.59940e+01  4.55164e+01
       E -4.80468e+01  1.28013e+01 -2.09397e+01
3
# CELL(abcABC): 1322.94304  1322.94304  1322.94304    90.00000    90.00000    90.00000  Step:        3900  Bead:      20 positions{angstrom}  cell{angstrom}
       E -1.01587e+02 -9.57171e+00 -4.95758e+01
       E -4.23657e+01 -3.47688e+01  2.50739e+01
       E -1.49890e+01 -2.46872e+01  9.03269e+00
3
# CELL(abcABC): 1322.94304  1322.94304  1322.94304    90.00000    90.00000    90.00000  Step:        4000  Bead:      20 positions{angstrom}  cell{angstrom}
       E -1.14832e+02  2.04718e+01 -5.41608e+01
       E -5.00539e+01  8.17883e+00  6.15030e+01
       E -2.04563e+01  1.13823e+01  2.78262e+01
3
# CELL(abcABC): 1322.94304  1322.94304  1322.94304    90.00000    90.00000    90.00000  Step:        4100  Bead:      20 positions{angstrom}  cell{angstrom}
       E -8.73771e+01  7.95289e+00 -9.43936e+01
       E -6.40757e+01  2.25072e+01 -3.04085e+00
       E -1.56086e+01 -5.50251e+00  2.61765e+01
3
# CELL(abcABC): 1322.94304  1322.94304  1322.94304    90.00000    90.00000    90.00000  Step:        4200  Bead:      20 positions{angstrom}  cell{angstrom}
       E -9.00800e+01 -2.07502e+01 -1.24899e+02
       E -8.09194e+01  3.99890e+01  8.76084e-01
       E -4.90447e+00  1.64808e+01  6.69586e+01
3
# CELL(abcABC): 1322.94304  1322.94304  1322.94304    90.00000    90.00000    90.00000  Step:        4300  Bead:      20 positions{angstrom}  cell{angstrom}
       E -1.55509e+01  1.32355e+01 -5.42404e+01
       E -4.27394e+01  7.38370e+00 -1.24013e+00
       E  2.45270e+01  7.02873e+00  3.01975e+01
3
# CELL(abcABC): 1322.94304  1322.94304  1322.94304    90.00000    90.00000    90.00000  Step:        4400  Bead:      20 positions{angstrom}  cell{angstrom}
       E -1.62948e+01  1.78538e+01 -9.68346e+00
       E -4.36465e+01  2.88935e+01 -5.68793e+01
       E  5.57665e+01 -2.64853e+01  6.27197e+00
3
# CELL(abcABC): 1322.94304  1322.94304  1322.94304    90.00000    90.00000    90.00000  Step:        4500  Bead:      20 positions{angstrom}  cell{angstrom}
       E -6.08669e+01 -1.77672e+00 -4.50170e+01
       E -3.00988e+01  4.83032e+01 -4.34375e+01
       E  1.77626e+01  1.21428e+00  1.48521e+01
3
# CELL(abcABC): 1322.94304  1322.94304  1322.94304    90.00000    90.00000    90.00000  Step:        4600  Bead:      20 positions{angstrom}  cell{angstrom}
       E -5.34915e+01  2.40193e+01 -5.02849e+01
       E -2.29500e+01  8.89114e+01 -1.66002e+01
       E -1.54047e+01  3.28573e+01 -1.01283e+01
3
# CELL(abcABC): 1322.94304  1322.94304  1322.94304    90.00000    90.00000    90.00000  Step:        4700  Bead:      20 positions{angstrom}  cell{angstrom}
       E -3.48832e+01  4.43845e+01 -2.26083e+01
       E -2.44266e+01  1.70966e+01 -3.32004e+01
       E -1.52019e+01  1.02202e+01  1.07650e+01
3
# CELL(abcABC): 1322.94304  1322.94304  1322.94304    90.00000    90.00000    90.00000  Step:        4800  Bead:      20 positions{angstrom}  cell{angstrom}
       E -3.29936e+01  1.27015e+01 -3.40814e+01
       E -3.56764e+01  4.29942e+00 -6.84749e+00
       E  1.66394e+01  1.13919e+01  2.26724e+01
3
# CELL(abcABC): 1322.94304  1322.94304  1322.94304    90.00000    90.00000    90.00000  Step:        4900  Bead:      20 positions{angstrom}  cell{angstrom}
       E  1.51512e+01 -1.21054e+00  1.35663e+01
       E -3.24778e+01 -1.05338e+01 -2.63637e+01
       E  2.26745e+00 -4.26502e+01  1.20153e+01
3
# CELL(abcABC): 1322.94304  1322.94304  1322.94304    90.00000    90.00000    90.00000  Step:        5000  Bead:      20 positions{angstrom}  cell{angstrom}
       E -9.96846e+00 -1.33002e+01  2.41687e+01
       E -1.51084e+01  2.93459e+00 -2.14750e+01
       E  2.75368e+01  1.49834e+01 -2.56412e+00
3
# CELL(abcABC): 1322.94304  1322.94304  1322.94304    90.00000    90.00000    90.00000  Step:        5100  Bead:      20 positions{angstrom}  cell{angstrom}
       E -4.13573e+01  3.68903e+00  2.60624e+01
       E -3.19299e+01  2.77687e+01 -2.88059e+01
       E  3.05467e+00 -1.31340e+01 -2.51786e+01
3
# CELL(abcABC): 1322.94304  1322.94304  1322.94304    90.00000    90.00000    90.00000  Step:        5200  Bead:      20 positions{angstrom}  cell{angstrom}
       E -8.93435e+01 -1.43370e+01 -6.71058e+00
       E  1.03911e+01  3.46574e+01 -4.77519e+01
       E  1.54852e+01  4.36695e+00  5.22722e+00
3
# CELL(abcABC): 1322.94304  1322.94304  1322.94304    90.00000    90.00000    90.00000  Step:        5300  Bead:      20 positions{angstrom}  cell{angstrom}
       E -5.45927e+01 -4.03477e+00  1.39369e+00
       E  2.54078e+01  7.47632e+01 -1.91479e+01
       E -4.17225e+01  3.45511e+01  4.08196e+01
3
# CELL(abcABC): 1322.94304  1322.94304  1322.94304    90.00000    90.00000    90.00000  Step:        5400  Bead:      20 positions{angstrom}  cell{angstrom}
       E -1.74539e+01  6.87767e+00  3.75539e-01
       E  4.07967e+01  2.60380e+01  5.71978e+00
       E -2.98869e+01  2.47949e+01  5.58776e+01
3
# CELL(abcABC): 1322.94304  1322.94304  1322.94304    90.00000    90.00000    90.00000  Step:        5500  Bead:      20 positions{angstrom}  cell{angstrom}
       E  1.72411e+01 -1.99622e+01 -4.09759e+01
       E -1.02227e+01  3.62074e+01 -3.75357e-01
       E -4.30674e+01 -1.92462e+01  5.13721e+01
3
# CELL(abcABC): 1322.94304  1322.94304  1322.94304    90.00000    90.00000    90.00000  Step:        5600  Bead:      20 positions{angstrom}  cell{angstrom}
       E -1.20762e+01  2.93008e+01 -2.59926e+01
       E -4.44720e+01  2.05815e+01  4.43374e+00
       E -4.49875e+01 -5.94916e+00  3.68888e+01
3
# CELL(abcABC): 1322.94304  1322.94304  1322.94304    90.00000    90.00000    90.00000  Step:        5700  Bead:      20 positions{angstrom}  cell{angstrom}
       E  1.10447e+00 -2.43014e+01 -4.32896e+01
       E -5.79315e+01  1.01714e+01 -1.82393e+01
       E -6.12037e+01 -5.41671e+00 -5.77812e+00
3
# CELL(abcABC): 1322.94304  1322.94304  1322.94304    90.00000    90.00000    90.00000  Step:        5800  Bead:      20 positions{angstrom}  cell{angstrom}
       E -9.63607e+00  4.66904e+00 -1.52892e+01
       E -3.88590e+01  3.27268e+01 -2.97604e+01
       E -2.32145e+01  3.20176e+01  1.96824e+01
3
# CELL(abcABC): 1322.94304  1322.94304  1322.94304    90.00000    90.00000    90.00000  Step:        5900  Bead:      20 positions{angstrom}  cell{angstrom}
       E  9.41455e+00  1.21426e+00 -2.01660e+01
       E -2.37117e+01  5.57706e+00  3.33983e+01
       E -5.84944e-01 -1.10625e+00 -5.15502e+01
3
# CELL(abcABC): 1322.94304  1322.94304  1322.94304    90.00000    90.00000    90.00000  Step:        6000  Bead:      20 positions{angstrom}  cell{angstrom}
       E -1.06905e+01 -2.84454e+01 -1.93949e+01
       E  1.93796e+01  1.23713e+01  2.06804e+01
       E  6.58540e+00 -1.02232e+01 -1.29469e+01
3
# CELL(abcABC): 1322.94304  1322.94304  1322.94304    90.00000    90.00000    90.00000  Step:        6100  Bead:      20 positions{angstrom}  cell{angstrom}
       E -1.80855e+01 -2.89939e+01 -4.60657e+00
       E  7.55062e+01  3.66598e+01  9.69794e+00
       E  2.32378e+01 -2.70862e+01 -1.39593e+01
3
# CELL(abcABC): 1322.94304  1322.94304  1322.94304    90.00000    90.00000    90.00000  Step:        6200  Bead:      20 positions{angstrom}  cell{angstrom}
       E -2.44398e+01 -4.52856e+01 -8.19642e+01
       E  1.08367e+02  5.70836e+01  1.06324e+01
       E  2.06500e+01 -4.42214e+01 -2.45162e+00
3
# CELL(abcABC): 1322.94304  1322.94304  1322.94304    90.00000    90.00000    90.00000  Step:        6300  Bead:      20 positions{angstrom}  cell{angstrom}
       E  4.62455e+00 -5.33278e+01 -9.50802e+01
       E  7.52700e+01  1.30935e+01 -4.65369e+01
       E  4.04917e+01 -3.77406e+01 -1.49231e+01
3
# CELL(abcABC): 1322.94304  1322.94304  1322.94304    90.00000    90.00000    90.00000  Step:        6400  Bead:      20 positions{angstrom}  cell{angstrom}
       E  4.23780e+01 -4.46059e+01 -1.16514e+02
       E  4.36862e+01 -3.04465e+01 -5.35953e+01
       E  5.15588e+01 -1.34247e+01 -3.29262e+01
3
# CELL(abcABC): 1322.94304  1322.94304  1322.94304    90.00000    90.00000    90.00000  Step:        6500  Bead:      20 positions{angstrom}  cell{angstrom}
       E  3.27756e+01 -4.93632e+01 -7.92122e+01
       E  1.10706e+01  6.05044e+01 -7.16267e+01
       E  7.37820e+01 -3.30266e+01 -8.19799e+00
3
# CELL(abcABC): 1322.94304  1322.94304  1322.94304    90.00000    90.00000    90.00000  Step:        6600  Bead:      20 positions{angstrom}  cell{angstrom}
       E  4.49295e+00 -9.48490e+01 -7.00198e+01
       E  7.90247e+00 -6.11403e+00 -3.78816e+01
       E  5.85017e+01 -1.41747e+01 -1.39038e+01
3
# CELL(abcABC): 1322.94304  1322.94304  1322.94304    90.00000    90.00000    90.00000  Step:        6700  Bead:      20 positions{angstrom}  cell{angstrom}
       E -3.25898e+01 -1.17498e+02 -5.75839e+01
       E  1.76432e+01  6.67193e+00 -9.05519e+00
       E  6.29194e+01 -5.56084e+00  2.12734e+01
3
# CELL(abcABC): 1322.94304  1322.94304  1322.94304    90.00000    90.00000    90.00000  Step:        6800  Bead:      20 positions{angstrom}  cell{angstrom}
       E -1.19548e+00 -1.16756e+02 -6.81900e+01
       E  1.55834e+01 -3.82711e+01 -3.26747e+01
       E  3.58618e+01 -2.22498e+01 -3.36646e+01
3
# CELL(abcABC): 1322.94304  1322.94304  1322.94304    90.00000    90.00000    90.00000  Step:        6900  Bead:      20 positions{angstrom}  cell{angstrom}
       E  2.98594e+01 -6.35986e+01 -2.26715e+01
       E  1.26249e+01 -2.17517e+01 -2.08735e+01
       E  2.73910e+00 -1.83698e+00 -4.63227e+01
3
# CELL(abcABC): 1322.94304  1322.94304  1322.94304    90.00000    90.00000    90.00000  Step:        7000  Bead:      20 positions{angstrom}  cell{angstrom}
       E  3.86657e+01 -4.57959e+01  9.22237e-01
       E  3.23397e+01  1.80854e+01 -2.27426e+01
       E  3.87171e+01 -6.41438e+00 -4.29553e+01
3
# CELL(abcABC): 1322.94304  1322.94304  1322.94304    90.00000    90.00000    90.00000  Step:        7100  Bead:      20 positions{angstrom}  cell{angstrom}
       E  3.62880e+01 -1.59063e+01 -2.07788e+01
       E  1.38831e+01  2.90875e+01  1.29005e+01
       E  4.17950e+01  6.83565e+00 -6.30041e+01
3
# CELL(abcABC): 1322.94304  1322.94304  1322.94304    90.00000    90.00000    90.00000  Step:        7200  Bead:      20 positions{angstrom}  cell{angstrom}
       E  3.81298e+01 -3.37272e+01 -3.82943e+01
       E -2.62394e+01  3.05644e+01  2.20389e+01
       E  5.99144e+01  4.65466e+01 -3.11560e+01
3
# CELL(abcABC): 1322.94304  1322.94304  1322.94304    90.00000    90.00000    90.00000  Step:        7300  Bead:      20 positions{angstrom}  cell{angstrom}
       E  3.68339e+01 -4.32535e+01 -2.89584e+01
       E -1.56820e+01  4.04853e+01  1.29735e+01
       E  3.44760e+01  4.34828e+01 -1.32876e+01
3
# CELL(abcABC): 1322.94304  1322.94304  1322.94304    90.00000    90.00000    90.00000  Step:        7400  Bead:      20 positions{angstrom}  cell{angstrom}
       E  2.81906e+00 -3.05015e+01 -3.22907e+01
       E -7.22621e+00  5.39799e+00 -2.01641e+01
       E  2.86562e+01  4.80828e+01  1.01961e+00
3
# CELL(abcABC): 1322.94304  1322.94304  1322.94304    90.00000    90.00000    90.00000  Step:        7500  Bead:      20 positions{angstrom}  cell{angstrom}
       E  2.37609e+01 -7.30972e+01 -6.19126e+01
       E -2.05604e+01  1.98758e+00 -6.86031e-01
       E  4.59042e+01  1.00961e+01  8.75344e+00
3
# CELL(abcABC): 1322.94304  1322.94304  1322.94304    90.00000    90.00000    90.00000  Step:        7600  Bead:      20 positions{angstrom}  cell{angstrom}
       E -1.06183e+01 -5.27756e+01 -4.99563e+01
       E -2.04871e+01 -4.41765e+01 -3.12300e+01
       E -2.44630e+00 -7.22231e+00 -1.38382e+01
3
# CELL(abcABC): 1322.94304  1322.94304  1322.94304    90.00000    90.00000    90.00000  Step:        7700  Bead:      20 positions{angstrom}  cell{angstrom}
       E  1.37826e+01 -6.34297e+01 -1.94949e+01
       E  2.07307e+01 -2.42641e+01 -2.19524e+01
       E  2.12051e+01 -6.61285e+01 -3.41617e+01
3
# CELL(abcABC): 1322.94304  1322.94304  1322.94304    90.00000    90.00000    90.00000  Step:        7800  Bead:      20 positions{angstrom}  cell{angstrom}
       E  1.83898e+01 -6.04530e+01 -5.30362e+01
       E  1.72102e+01  5.25988e+00 -2.33707e+01
       E  7.05714e+00 -5.87452e+01 -2.04327e+01
3
# CELL(abcABC): 1322.94304  1322.94304  1322.94304    90.00000    90.00000    90.00000  Step:        7900  Bead:      20 positions{angstrom}  cell{angstrom}
       E  3.65370e+01 -5.17162e+01 -1.58044e+01
       E  1.99598e+01 -1.68080e+00 -5.38849e+01
       E -4.84385e+01 -4.57281e+01 -4.49843e+01
3
# CELL(abcABC): 1322.94304  1322.94304  1322.94304    90.00000    90.00000    90.00000  Step:        8000  Bead:      20 positions{angstrom}  cell{angstrom}
       E  2.98790e+01 -2.68835e+00 -2.65954e+01
       E -2.06811e+01  2.52184e+01 -3.81261e+01
       E  4.69438e+00 -2.10857e+01 -6.31957e+01
3
# CELL(abcABC): 1322.94304  1322.94304  1322.94304    90.00000    90.00000    90.00000  Step:        8100  Bead:      20 positions{angstrom}  cell{angstrom}
       E  1.41746e+01  1.02398e+01 -3.48226e+01
       E -1.88198e+01  1.09904e+01 -2.23329e+01
       E -1.86297e+01 -1.76490e+01 -3.82292e+00
3
# CELL(abcABC): 1322.94304  1322.94304  1322.94304    90.00000    90.00000    90.00000  Step:        8200  Bead:      20 positions{angstrom}  cell{angstrom}
       E -1.27744e+01  2.04411e+01 -6.85352e+01
       E -2.00893e+01 -3.04796e+00 -3.22817e+00
       E -1.77926e+01 -2.97827e+01  4.64818e+01
3
# CELL(abcABC): 1322.94304  1322.94304  1322.94304    90.00000    90.00000    90.00000  Step:        8300  Bead:      20 positions{angstrom}  cell{angstrom}
       E  1.48694e+00  3.90501e+01  4.40922e-01
       E -9.10148e+00  1.65554e+01 -1.32120e+01
       E -3.13519e+01 -6.58066e+01  6.75933e+01
3
# CELL(abcABC): 1322.94304  1322.94304  1322.94304    90.00000    90.00000    90.00000  Step:        8400  Bead:      20 positions{angstrom}  cell{angstrom}
       E -7.65107e+00  1.81271e+01 -6.88997e+00
       E  1.42372e+01  3.08991e+01 -1.17434e+01
       E -8.38147e+00 -6.46358e+01  4.36666e+01
3
# CELL(abcABC): 1322.94304  1322.94304  1322.94304    90.00000    90.00000    90.00000  Step:        8500  Bead:      20 positions{angstrom}  cell{angstrom}
       E -1.19699e+00 -3.45046e+01 -3.87315e+01
       E  1.64048e+01  3.84481e+01 -1.50002e+01
       E  7.08976e+00 -3.35892e+01  5.02535e+01
3
# CELL(abcABC): 1322.94304  1322.94304  1322.94304    90.00000    90.00000    90.00000  Step:        8600  Bead:      20 positions{angstrom}  cell{angstrom}
       E -3.34938e+00 -3.92990e+01 -2.84848e+01
       E  8.66089e+00 -1.90476e+00 -3.54057e+01
       E  3.35424e+01 -2.96702e+01  6.74998e+01
3
# CELL(abcABC): 1322.94304  1322.94304  1322.94304    90.00000    90.00000    90.00000  Step:        8700  Bead:      20 positions{angstrom}  cell{angstrom}
       E -1.21886e+01  1.44994e+00  4.23816e+00
       E  2.01284e+01  1.09671e+01  2.19948e+01
       E  3.90265e+01 -3.55626e+00  5.15892e+01
3
# CELL(abcABC): 1322.94304  1322.94304  1322.94304    90.00000    90.00000    90.00000  Step:        8800  Bead:      20 positions{angstrom}  cell{angstrom}
       E -1.38429e+01  3.12409e+01 -1.41485e+01
       E -6.90679e-01  6.38350e-01  1.90295e+01
       E  4.97754e+01 -7.62315e+01  1.55882e+01
3
# CELL(abcABC): 1322.94304  1322.94304  1322.94304    90.00000    90.00000    90.00000  Step:        8900  Bead:      20 positions{angstrom}  cell{angstrom}
       E -5.07642e+01  2.43776e+01  3.82888e+01
       E  4.88000e+00  1.22038e+01  1.87686e+01
       E  8.27060e+01 -5.57166e+01  2.93020e+00
3
# CELL(abcABC): 1322.94304  1322.94304  1322.94304    90.00000    90.00000    90.00000  Step:        9000  Bead:      20 positions{angstrom}  cell{angstrom}
       E -5.02481e+01  1.65090e+01  3.49958e+01
       E  1.20327e+01  1.88219e+01  7.92074e+01
       E  3.05707e+01 -4.40016e+01  3.02103e+01
3
# CELL(abcABC): 1322.94304  1322.94304  1322.94304    90.00000    90.00000    90.00000  Step:        9100  Bead:      20 positions{angstrom}  cell{angstrom}
       E -2.52038e+01  2.12950e+01  9.73105e+00
       E  3.11190e+01 -3.42882e+01  6.15299e+01
       E  2.22026e+01 -1.09206e+01 -4.69455e+00
3
# CELL(abcABC): 1322.94304  1322.94304  1322.94304    90.00000    90.00000    90.00000  Step:        9200  Bead:      20 positions{angstrom}  cell{angstrom}
       E -1.66593e+00  2.52739e+01  1.02294e+00
       E -8.90900e+00  4.52633e-01  5.99753e+01
       E  2.69602e+01 -4.15792e+01 -1.04008e+01
3
# CELL(abcABC): 1322.94304  1322.94304  1322.94304    90.00000    90.00000    90.00000  Step:        9300  Bead:      20 positions{angstrom}  cell{angstrom}
       E  6.06453e+00 -3.69946e-01 -2.49684e+01
       E -4.38573e+01  5.58813e+00  2.84535e+01
       E -7.17890e+00 -3.21775e+01 -6.14631e-01
3
# CELL(abcABC): 1322.94304  1322.94304  1322.94304    90.00000    90.00000    90.00000  Step:        9400  Bead:      20 positions{angstrom}  cell{angstrom}
       E -7.03965e-01  3.02364e+01 -5.39596e+01
       E -3.87717e+01 -5.36816e+00  4.36200e+01
       E -1.61033e+01 -5.23255e+01  1.54595e+01
3
# CELL(abcABC): 1322.94304  1322.94304  1322.94304    90.00000    90.00000    90.00000  Step:        9500  Bead:      20 positions{angstrom}  cell{angstrom}
       E  3.05162e+01  6.39153e+01 -4.94933e+01
       E -5.99075e+00 -4.69255e+01  2.63118e+01
       E  7.29967e+00 -2.55739e+01  3.44905e+01
3
# CELL(abcABC): 1322.94304  1322.94304  1322.94304    90.00000    90.00000    90.00000  Step:        9600  Bead:      20 positions{angstrom}  cell{angstrom}
       E  1.07104e+01  2.74604e+01 -5.07141e+01
       E  4.67723e+01 -9.21226e+01 -1.90731e+00
       E -4.62560e+00 -1.26314e+01 -3.58749e+00
3
# CELL(abcABC): 1322.94304  1322.94304  1322.94304    90.00000    90.00000    90.00000  Step:        9700  Bead:      20 positions{angstrom}  cell{angstrom}
       E -1.03479e+01 -3.58265e+01 -4.88089e+01
       E  2.11157e+01 -7.54466e+01  8.66673e+00
       E  6.11679e+00 -7.50852e+00 -5.82728e+00
3
# CELL(abcABC): 1322.94304  1322.94304  1322.94304    90.00000    90.00000    90.00000  Step:        9800  Bead:      20 positions{angstrom}  cell{angstrom}
       E -2.80924e+01 -6.43825e+01 -3.23939e+01
       E -7.28816e-01 -7.74678e+01  7.43105e-01
       E -1.59317e+01 -1.51074e+01  3.99958e+01
3