3
# CELL(abcABC): 1322.94304  1322.94304  1322.94304    90.00000    90.00000    90.00000  Step:           0  Bead:      31 positions{angstrom}  cell{angstrom}
       E  0.00000e+00  0.00000e+00  0.00000e+00
       E  0.00000e+00  0.00000e+00  0.00000e+00
       E  0.00000e+00  0.00000e+00  0.00000e+00
3
# CELL(abcABC): 1322.94304  1322.94304  1322.94304    90.00000    90.00000    90.00000  Step:         100  Bead:      31 positions{angstrom}  cell{angstrom}
       E -1.17689e+01 -4.26971e+01 -7.88045e-01
       E -1.44582e+01 -8.92835e+00 -1.94606e+01
       E  4.62442e+01 -3.61266e+00  7.73344e+00
3
# CELL(abcABC): 1322.94304  1322.94304  1322.94304    90.00000    90.00000    90.00000  Step:         200  Bead:      31 positions{angstrom}  cell{angstrom}
       E -9.51721e+00  2.12964e+00  2.55177e+01
       E  4.26143e+00  1.15923e+01  4.12530e+00
       E  4.99382e+00 -3.36129e+00  1.08199e+01
3
# CELL(abcABC): 1322.94304  1322.94304  1322.94304    90.00000    90.00000    90.00000  Step:         300  Bead:      31 positions{angstrom}  cell{angstrom}
       E  2.89929e+01 -3.68531e+00  1.32107e+01
       E -1.02632e+01 -3.42086e+00  1.27753e+01
       E  1.79390e+01  1.90065e+01 -2.18078e+01
3
# CELL(abcABC): 1322.94304  1322.94304  1322.94304    90.00000    90.00000    90.00000  Step:         400  Bead:      31 positions{angstrom}  cell{angstrom}
       E  2.60124e+01  5.23368e+00 -3.65751e+00
       E  1.23550e+01  1.42028e+01  1.50371e+01
       E  5.65434e+01  1.78669e+01 -4.23527e+01
3
# CELL(abcABC): 1322.94304  1322.94304  1322.94304    90.00000    90.00000    90.00000  Step:         500  Bead:      31 positions{angstrom}  cell{angstrom}
       E  1.94082e+01  3.19079e+00  1.57005e+01
       E -1.09707e+01  7.56617e+00  1.82004e+01
       E  2.76167e+01  1.16800e+01 -2.10909e+01
3
# CELL(abcABC): 1322.94304  1322.94304  1322.94304    90.00000    90.00000    90.00000  Step:         600  Bead:      31 positions{angstrom}  cell{angstrom}
       E -2.86792e+00 -6.14840e+00  2.54933e+01
       E -4.76449e+01 -2.86858e+00  2.30260e+01
       E  3.22539e+01  2.25843e+01 -1.80249e+01
3
# CELL(abcABC): 1322.94304  1322.94304  1322.94304    90.00000    90.00000    90.00000  Step:         700  Bead:      31 positions{angstrom}  cell{angstrom}
       E  3.36360e+00 -1.48327e+01 -1.81671e+01
       E -5.35300e+01  2.68458e+01  2.91705e+01
       E -1.82869e+01  2.19819e+01  1.93785e+01
3
# CELL(abcABC): 1322.94304  1322.94304  1322.94304    90.00000    90.00000    90.00000  Step:         800  Bead:      31 positions{angstrom}  cell{angstrom}
       E  1.01017e+01  1.21270e+01  1.70431e+01
       E -1.86590e+01  3.61232e+01  3.95374e+01
       E -1.76626e+01 -1.77166e+01 -7.46081e+00
3
# CELL(abcABC): 1322.94304  1322.94304  1322.94304    90.00000    90.00000    90.00000  Step:         900  Bead:      31 positions{angstrom}  cell{angstrom}
       E  3.66654e+01  1.10042e+01  1.79914e+01
       E -3.02544e+01  6.35016e+01  4.86869e+01
       E -5.04621e+00  1.66731e+01  3.48783e+01
3
# CELL(abcABC): 1322.94304  1322.94304  1322.94304    90.00000    90.00000    90.00000  Step:        1000  Bead:      31 positions{angstrom}  cell{angstrom}
       E  1.59757e+01 -3.82571e+00 -4.78788e-01
       E -8.63992e-01  5.17252e+01  3.11500e+01
       E -5.10689e+00 -3.45847e+01  1.21293e+01
3
# CELL(abcABC): 1322.94304  1322.94304  1322.94304    90.00000    90.00000    90.00000  Step:        1100  Bead:      31 positions{angstrom}  cell{angstrom}
       E  1.67189e+01  2.39123e+01 -1.95797e+00
       E -2.81915e+01  5.55049e+01  5.01898e+01
       E  3.90158e+01 -1.43529e+01 -1.48997e+01
3
# CELL(abcABC): 1322.94304  1322.94304  1322.94304    90.00000    90.00000    90.00000  Step:        1200  Bead:      31 positions{angstrom}  cell{angstrom}
       E  1.04758e+01  8.08284e+00 -3.73293e+01
       E -2.21654e+01  3.82943e+01  2.37203e+01
       E  6.66985e+01  6.85045e+00 -4.60787e+01
3
# CELL(abcABC): 1322.94304  1322.94304  1322.94304    90.00000    90.00000    90.00000  Step:        1300  Bead:      31 positions{angstrom}  cell{angstrom}
       E  3.44252e+00  2.76048e+00 -5.35001e+01
       E -3.66295e+01  2.20043e+01 -1.54611e+01
       E  3.48630e+01  4.70640e+00 -4.31606e+01
3
# CELL(abcABC): 1322.94304  1322.94304  1322.94304    90.00000    90.00000    90.00000  Step:        1400  Bead:      31 positions{angstrom}  cell{angstrom}
       E -3.41165e+01  4.08836e+00 -4.66266e+01
       E -4.39129e+01  4.89096e+01 -1.83936e+01
       E  2.00699e-01  4.67954e+00 -1.09262e+01
3
# CELL(abcABC): 1322.94304  1322.94304  1322.94304    90.00000    90.00000    90.00000  Step:        1500  Bead:      31 positions{angstrom}  cell{angstrom}
       E -4.96934e+01  2.74560e+01 -5.62258e+01
       E -4.07349e+01  2.96717e+01  1.60982e+01
       E  1.73047e+01  2.32140e+01  1.38527e+01
3
# CELL(abcABC): 1322.94304  1322.94304  1322.94304    90.00000    90.00000    90.00000  Step:        1600  Bead:      31 positions{angstrom}  cell{angstrom}
       E -2.94159e+01  5.09664e+01 -8.24854e+01
       E -3.71581e+01  4.59450e+01  1.13507e+01
       E  1.54885e+01 -1.97122e+01  3.12105e+01
3
# CELL(abcABC): 1322.94304  1322.94304  1322.94304    90.00000    90.00000    90.00000  Step:        1700  Bead:      31 positions{angstrom}  cell{angstrom}
       E -2.55728e+01  2.38177e+01 -1.23318e+01
       E -5.53823e+01  4.20284e+01 -3.76799e+01
       E -2.03634e+01 -3.40029e+01  1.53970e+01
3
# CELL(abcABC): 1322.94304  1322.94304  1322.94304    90.00000    90.00000    90.00000  Step:        1800  Bead:      31 positions{angstrom}  cell{angstrom}
       E -4.22367e+01  2.78668e+01  1.21190e+01
       E -6.45704e+01  5.32562e+01 -2.71264e+01
       E -1.39699e+01 -2.89415e+01  3.58345e+01
3
# CELL(abcABC): 1322.94304  1322.94304  1322.94304    90.00000    90.00000    90.00000  Step:        1900  Bead:      31 positions{angstrom}  cell{angstrom}
       E -3.83546e+01  2.63407e+01  3.51991e+01
       E -5.14957e+01  3.60312e+01 -3.27008e+00
       E -2.26108e+01 -2.40133e+01  1.91156e+01
3
# CELL(abcABC): 1322.94304  1322.94304  1322.94304    90.00000    90.00000    90.00000  Step:        2000  Bead:      31 positions{angstrom}  cell{angstrom}
       E -3.31505e+00 -2.61374e+01  4.70709e+01
       E -3.42158e+01  4.96213e+01 -2.10615e+00
       E -6.86155e+00 -3.40535e+01  1.19822e+01
3
# CELL(abcABC): 1322.94304  1322.94304  1322.94304    90.00000    90.00000    90.00000  Step:        2100  Bead:      31 positions{angstrom}  cell{angstrom}
       E -1.41146e+01 -7.54575e+01  3.06755e+01
       E -6.64767e+01  5.01508e+01 -2.05231e+01
       E -3.93762e+01  2.44057e+01 -3.28411e+00
3
# CELL(abcABC): 1322.94304  1322.94304  1322.94304    90.00000    90.00000    90.00000  Step:        2200  Bead:      31 positions{angstrom}  cell{angstrom}
       E  1.33294e+01 -1.02956e+02 -3.01502e+00
       E -8.32611e+01  5.44216e+01  2.27289e+01
       E -3.76073e+01  2.22476e+01  1.07305e+01
3
# CELL(abcABC): 1322.94304  1322.94304  1322.94304    90.00000    90.00000    90.00000  Step:        2300  Bead:      31 positions{angstrom}  cell{angstrom}
       E  7.12125e+00 -6.80625e+01 -1.12072e+01
       E -6.23203e+01  4.90478e+01  1.18785e+01
       E -2.52527e+01 -8.25164e+00 -1.18567e+01
3
# CELL(abcABC): 1322.94304  1322.94304  1322.94304    90.00000    90.00000    90.00000  Step:        2400  Bead:      31 positions{angstrom}  cell{angstrom}
       E -2.36108e+01 -4.24302e+01  1.73994e+01
       E -3.57527e+01  3.47511e+01  2.43647e+01
       E -1.80585e+01 -2.63269e+01 -2.54130e+01
3
# CELL(abcABC): 1322.94304  1322.94304  1322.94304    90.00000    90.00000    90.00000  Step:        2500  Bead:      31 positions{angstrom}  cell{angstrom}
       E -2.35452e+01 -1.10462e+01  3.36139e+01
       E -6.63103e+01  5.09540e+00  5.41653e+01
       E  1.02022e+01 -5.41834e+01  9.49950e+00
3
# CELL(abcABC): 1322.94304  1322.94304  1322.94304    90.00000    90.00000    90.00000  Step:        2600  Bead:      31 positions{angstrom}  cell{angstrom}
       E -2.62907e+01 -2.14066e+01  7.57716e+01
       E -4.03257e+01 -4.98334e+01  2.90354e+01
       E  3.31845e+01 -2.88009e+01  1.18599e+01
3
# CELL(abcABC): 1322.94304  1322.94304  1322.94304    90.00000    90.00000    90.00000  Step:        2700  Bead:      31 positions{angstrom}  cell{angstrom}
       E -2.62117e+01 -5.58205e+01  1.11688e+02
       E -7.34099e+01 -3.31605e+01  4.31231e+01
       E -1.21737e+01 -4.74506e+01  1.51968e+01
3
# CELL(abcABC): 1322.94304  1322.94304  1322.94304    90.00000    90.00000    90.00000  Step:        2800  Bead:      31 positions{angstrom}  cell{angstrom}
       E -1.36318e+01 -5.50700e+01  8.35561e+01
       E -5.51357e+01 -7.11727e+00  2.58712e+01
       E  1.10430e+01 -4.00357e+01  3.15378e+01
3
# CELL(abcABC): 1322.94304  1322.94304  1322.94304    90.00000    90.00000    90.00000  Step:        2900  Bead:      31 positions{angstrom}  cell{angstrom}
       E -6.16420e+01 -1.00712e+02  5.03687e+01
       E -5.11853e+01 -1.79115e+01  4.02616e+01
       E  2.35610e+01 -6.82944e+01  3.58808e+01
3
# CELL(abcABC): 1322.94304  1322.94304  1322.94304    90.00000    90.00000    90.00000  Step:        3000  Bead:      31 positions{angstrom}  cell{angstrom}
       E -6.76607e+01 -6.35861e+01  2.24935e+01
       E -1.34971e+01  6.32665e+00  3.19171e+01
       E  5.12967e+01 -7.00590e+01  2.09910e+01
3
# CELL(abcABC): 1322.94304  1322.94304  1322.94304    90.00000    90.00000    90.00000  Step:        3100  Bead:      31 positions{angstrom}  cell{angstrom}
       E -9.11529e+01 -4.99642e+01  4.85581e+01
       E -3.03186e+01  8.00857e+00  3.08284e+01
       E  5.86907e+01 -4.83663e+01  1.66110e+01
3
# CELL(abcABC): 1322.94304  1322.94304  1322.94304    90.00000    90.00000    90.00000  Step:        3200  Bead:      31 positions{angstrom}  cell{angstrom}
       E -9.16627e+01 -5.31077e+01  3.26448e+01
       E -4.60623e+01  3.15861e+01  4.71467e+01
       E  5.60252e+01 -5.30021e+01  3.29720e+01
3
# CELL(abcABC): 1322.94304  1322.94304  1322.94304    90.00000    90.00000    90.00000  Step:        3300  Bead:      31 positions{angstrom}  cell{angstrom}
       E -9.01929e+01 -1.38533e+00  9.03221e+01
       E -3.05585e+01  7.10894e+01  9.83542e+01
       E  2.67441e+01 -2.33319e+01  5.30909e+01
3
# CELL(abcABC): 1322.94304  1322.94304  1322.94304    90.00000    90.00000    90.00000  Step:        3400  Bead:      31 positions{angstrom}  cell{angstrom}
       E -7.62573e+01 -7.76007e+00  6.97729e+01
       E -5.53287e+01  6.61927e+01  6.27552e+01
       E  1.85297e+01 -9.76615e+00  3.80779e+01
3
# CELL(abcABC): 1322.94304  1322.94304  1322.94304    90.00000    90.00000    90.00000  Step:        3500  Bead:      31 positions{angstrom}  cell{angstrom}
       E -9.99704e+01 -4.12523e+01  3.41519e+01
       E -8.61462e+01  5.54753e+01  3.42832e+01
       E  6.85932e+00 -1.97315e+01  3.42345e+01
3
# CELL(abcABC): 1322.94304  1322.94304  1322.94304    90.00000    90.00000    90.00000  Step:        3600  Bead:      31 positions{angstrom}  cell{angstrom}
       E -8.80349e+01 -4.78645e+01  7.37152e+00
       E -5.88145e+01  1.33511e+01  3.81645e+01
       E -4.17060e+01 -2.99064e+01  7.21649e+00
3
# CELL(abcABC): 1322.94304  1322.94304  1322.94304    90.00000    90.00000    90.00000  Step:        3700  Bead:      31 positions{angstrom}  cell{angstrom}
       E -6.62298e+01 -5.76937e+01 -1.82045e+01
       E -3.05086e+01  2.89854e+01  1.69653e+01
       E -3.37289e+01 -3.87408e+01 -1.98534e+01
3
# CELL(abcABC): 1322.94304  1322.94304  1322.94304    90.00000    90.00000    90.00000  Step:        3800  Bead:      31 positions{angstrom}  cell{angstrom}
       E -4.73598e+01 -3.05245e+01 -1.08536e+01
       E -7.79375e+00 -1.52349e+01  1.39045e+01
       E -2.25602e+01 -6.51697e+01 -1.45051e+01
3
# CELL(abcABC): 1322.94304  1322.94304  1322.94304    90.00000    90.00000    90.00000  Step:        3900  Bead:      31 positions{angstrom}  cell{angstrom}
       E -6.51570e+01 -3.19994e+01 -2.99343e+01
       E -3.65305e+01  3.18477e+00  3.52171e+01
       E -1.70811e+01 -6.58762e+01 -4.83996e+00
3
# CELL(abcABC): 1322.94304  1322.94304  1322.94304    90.00000    90.00000    90.00000  Step:        4000  Bead:      31 positions{angstrom}  cell{angstrom}
       E -7.59849e+01 -1.60406e+01 -2.84728e+01
       E -3.22255e+01  1.46747e+01  3.04983e+01
       E -3.59454e+01 -3.42143e+01  3.40241e+00
3
# CELL(abcABC): 1322.94304  1322.94304  1322.94304    90.00000    90.00000    90.00000  Step:        4100  Bead:      31 positions{angstrom}  cell{angstrom}
       E -7.93160e+01  1.26496e+00 -5.08151e+01
       E -3.44603e+01  5.19983e+01  5.78122e+00
       E -5.39233e+01  3.32225e+00  4.98726e-01
3
# CELL(abcABC): 1322.94304  1322.94304  1322.94304    90.00000    90.00000    90.00000  Step:        4200  Bead:      31 positions{angstrom}  cell{angstrom}
       E -6.67621e+01  9.06394e-01 -7.47532e+01
       E -5.24763e+01  2.12440e+01 -4.31840e+00
       E -1.52055e+01 -2.29856e+00 -8.93841e+00
3
# CELL(abcABC): 1322.94304  1322.94304  1322.94304    90.00000    90.00000    90.00000  Step:        4300  Bead:      31 positions{angstrom}  cell{angstrom}
       E -7.27187e+01  2.65075e+01 -8.42092e+01
       E -2.60176e+01  5.38516e+00 -2.21564e+00
       E  6.86768e+00  1.08266e+01  6.85202e+00
3
# CELL(abcABC): 1322.94304  1322.94304  1322.94304    90.00000    90.00000    90.00000  Step:        4400  Bead:      31 positions{angstrom}  cell{angstrom}
       E -4.63467e+01  7.30399e+01 -5.03403e+01
       E -5.54403e+01 -3.85872e+00 -5.46809e+00
       E -1.15624e+01  4.33972e+01 -5.50042e+00
3
# CELL(abcABC): 1322.94304  1322.94304  1322.94304    90.00000    90.00000    90.00000  Step:        4500  Bead:      31 positions{angstrom}  cell{angstrom}
       E -8.40476e+01  3.89414e+01 -4.32302e+01
       E -4.02714e+01 -3.76585e+00 -2.86363e+00
       E -1.59268e+01  2.70000e+01  9.14330e+00
3
# CELL(abcABC): 1322.94304  1322.94304  1322.94304    90.00000    90.00000    90.00000  Step:        4600  Bead:      31 positions{angstrom}  cell{angstrom}
       E -6.47437e+01  3.11953e+01 -2.78734e+01
       E -2.77468e+01 -5.13322e-01  4.98500e+00
       E  2.02236e+01  3.27926e+01  2.21682e+01
3
# CELL(abcABC): 1322.94304  1322.94304  1322.94304    90.00000    90.00000    90.00000  Step:        4700  Bead:      31 positions{angstrom}  cell{angstrom}
       E -3.19305e+01  5.93992e+00 -4.32869e+01
       E -1.88242e+01 -2.16688e+01  1.58659e+01
       E  1.33801e+01  1.44734e+01  1.58261e+01
3
# CELL(abcABC): 1322.94304  1322.94304  1322.94304    90.00000    90.00000    90.00000  Step:        4800  Bead:      31 positions{angstrom}  cell{angstrom}
       E -2.45261e+01  4.36303e+01 -6.04896e+01
       E -2.09841e+01 -3.60197e+01  1.87558e+00
       E  2.51735e+01  6.58423e+00 -2.47297e+01
3
# CELL(abcABC): 1322.94304  1322.94304  1322.94304    90.00000    90.00000    90.00000  Step:        4900  Bead:      31 positions{angstrom}  cell{angstrom}
       E -5.17882e+01 -4.59821e+00 -6.16306e+01
       E  9.12605e+00 -2.74666e+01 -2.96463e+01
       E  3.36748e+01 -1.17198e+01  4.99711e+00
3
# CELL(abcABC): 1322.94304  1322.94304  1322.94304    90.00000    90.00000    90.00000  Step:        5000  Bead:      31 positions{angstrom}  cell{angstrom}
       E -3.94633e+01  1.64563e+01 -5.18887e+01
       E  1.51254e+01 -3.51376e+01 -5.98222e+01
       E  5.78569e+01 -2.74562e+01  3.74525e+01
3
# CELL(abcABC): 1322.94304  1322.94304  1322.94304    90.00000    90.00000    90.00000  Step:        5100  Bead:      31 positions{angstrom}  cell{angstrom}
       E -2.72297e+01  4.81295e+01 -2.67162e+01
       E  4.50480e+00 -1.61323e+01 -1.55895e+01
       E  3.12265e+01 -1.15675e+01  4.94171e+01
3
# CELL(abcABC): 1322.94304  1322.94304  1322.94304    90.00000    90.00000    90.00000  Step:        5200  Bead:      31 positions{angstrom}  cell{angstrom}
       E -3.79734e+01  2.02824e+01 -4.39013e+01
       E -1.11645e+01  1.69690e+01  4.95044e+00
       E  6.60201e+00 -9.94292e-01  5.60945e+00
3
# CELL(abcABC): 1322.94304  1322.94304  1322.94304    90.00000    90.00000    90.00000  Step:        5300  Bead:      31 positions{angstrom}  cell{angstrom}
       E -2.44000e+01  3.64782e+01 -2.53937e+00
       E -1.34015e+01  1.77126e+01 -1.84275e+01
       E -8.57838e+00  1.38785e+01  3.60459e+01
3
# CELL(abcABC): 1322.94304  1322.94304  1322.94304    90.00000    90.00000    90.00000  Step:        5400  Bead:      31 positions{angstrom}  cell{angstrom}
       E -3.98335e+01  2.08875e+01 -3.11918e+01
       E -2.74351e+01  4.33314e+01 -3.28607e+01
       E  3.97929e+00  8.21641e+00  4.99657e+01
3
# CELL(abcABC): 1322.94304  1322.94304  1322.94304    90.00000    90.00000    90.00000  Step:        5500  Bead:      31 positions{angstrom}  cell{angstrom}
       E -2.92866e+01  2.90527e+01 -1.56417e+01
       E -1.70616e+01  4.47138e+01 -1.06626e+01
       E  2.24945e+01  5.60703e+00  3.41378e+01
3
# CELL(abcABC): 1322.94304  1322.94304  1322.94304    90.00000    90.00000    90.00000  Step:        5600  Bead:      31 positions{angstrom}  cell{angstrom}
       E -2.33257e+01  2.22685e+01 -2.09295e+00
       E  6.55756e-01  4.32097e+01 -1.03734e+01
       E -1.30095e+01  8.70044e+00  8.36678e+00
3
# CELL(abcABC): 1322.94304  1322.94304  1322.94304    90.00000    90.00000    90.00000  Step:        5700  Bead:      31 positions{angstrom}  cell{angstrom}
       E -2.24503e+01 -9.96942e+00 -2.81292e+01
       E -1.96345e+01  2.28850e+01  3.48861e+00
       E -8.80641e+00 -1.56342e+01  3.41442e+00
3
# CELL(abcABC): 1322.94304  1322.94304  1322.94304    90.00000    90.00000    90.00000  Step:        5800  Bead:      31 positions{angstrom}  cell{angstrom}
       E -3.74690e+01  2.60836e+00 -6.63295e+00
       E -3.55551e+00  1.25513e+01  2.80680e+00
       E -1.48543e+01 -1.22375e+01 -1.48244e+01
3
# CELL(abcABC): 1322.94304  1322.94304  1322.94304    90.00000    90.00000    90.00000  Step:        5900  Bead:      31 positions{angstrom}  cell{angstrom}
       E -4.94953e+01  3.14188e+01  1.76970e+00
       E  2.21500e+01  2.36032e+01 -3.03604e+01
       E -2.63756e+00 -5.11487e+01  2.61474e+01
3
# CELL(abcABC): 1322.94304  1322.94304  1322.94304    90.00000    90.00000    90.00000  Step:        6000  Bead:      31 positions{angstrom}  cell{angstrom}
       E -5.37106e+01 -1.57370e+01 -1.88609e+01
       E  3.57065e+01 -4.44268e+00 -6.17830e+01
       E  6.84420e+00 -6.66160e+01  5.09692e+00
3
# CELL(abcABC): 1322.94304  1322.94304  1322.94304    90.00000    90.00000    90.00000  Step:        6100  Bead:      31 positions{angstrom}  cell{angstrom}
       E  3.60068e-01 -3.90671e+01 -1.26832e+01
       E  5.65079e+01 -4.86906e+00 -7.34422e+01
       E  2.54192e+01 -4.59916e+01 -1.26134e+00
3
# CELL(abcABC): 1322.94304  1322.94304  1322.94304    90.00000    90.00000    90.00000  Step:        6200  Bead:      31 positions{angstrom}  cell{angstrom}
       E  1.21519e+01 -7.47716e+01 -2.84562e+01
       E  7.25002e+01  2.20814e+00 -4.75913e+01
       E  3.91880e+01 -6.75760e+01 -8.20312e-01
3
# CELL(abcABC): 1322.94304  1322.94304  1322.94304    90.00000    90.00000    90.00000  Step:        6300  Bead:      31 positions{angstrom}  cell{angstrom}
       E  3.74213e+01 -8.58810e+01 -7.78179e+01
       E  5.68619e+01  3.33869e+00 -4.17155e+01
       E  4.15364e+01 -5.31395e+01  4.36602e+00
3
# CELL(abcABC): 1322.94304  1322.94304  1322.94304    90.00000    90.00000    90.00000  Step:        6400  Bead:      31 positions{angstrom}  cell{angstrom}
       E  3.61825e+00 -8.89814e+01 -8.18058e+01
       E  3.98251e+01  3.06922e+01 -4.73594e+01
       E  4.22723e+01 -5.95825e+01  2.42660e+01
3
# CELL(abcABC): 1322.94304  1322.94304  1322.94304    90.00000    90.00000    90.00000  Step:        6500  Bead:      31 positions{angstrom}  cell{angstrom}
       E  2.04382e+01 -7.94896e+01 -9.46494e+01
       E -1.29789e+01  2.87943e+01 -6.17892e+01
       E  3.93119e+01 -2.66744e+01 -2.96857e+01
3
# CELL(abcABC): 1322.94304  1322.94304  1322.94304    90.00000    90.00000    90.00000  Step:        6600  Bead:      31 positions{angstrom}  cell{angstrom}
       E  9.72855e+00 -8.42761e+01 -1.08012e+02
       E -1.56818e+01 -8.50225e+00 -2.35105e+01
       E  1.62522e+01 -5.94135e+01  5.56068e+00
3
# CELL(abcABC): 1322.94304  1322.94304  1322.94304    90.00000    90.00000    90.00000  Step:        6700  Bead:      31 positions{angstrom}  cell{angstrom}
       E  1.44889e+01 -8.92608e+01 -1.10279e+02
       E -3.26068e+01  1.67415e+00 -9.11600e+00
       E  2.84891e+01 -4.82950e+01 -5.96062e+00
3
# CELL(abcABC): 1322.94304  1322.94304  1322.94304    90.00000    90.00000    90.00000  Step:        6800  Bead:      31 positions{angstrom}  cell{angstrom}
       E  3.01369e+01 -8.17494e+01 -9.52235e+01
       E  1.94436e+01  2.64929e+01  1.20988e+01
       E  6.84491e+00 -5.06994e+01  1.94105e+01
3
# CELL(abcABC): 1322.94304  1322.94304  1322.94304    90.00000    90.00000    90.00000  Step:        6900  Bead:      31 positions{angstrom}  cell{angstrom}
       E -1.28764e+01 -9.86866e+01 -3.62254e+01
       E  2.58709e+01  9.88666e+00  1.10138e+01
       E -5.41233e+00 -6.09894e+01 -3.41208e+00
3
# CELL(abcABC): 1322.94304  1322.94304  1322.94304    90.00000    90.00000    90.00000  Step:        7000  Bead:      31 positions{angstrom}  cell{angstrom}
       E  3.93220e+00 -5.70905e+01 -1.79996e+01
       E  1.06755e+01  6.60507e+01  1.12600e+01
       E  3.09964e+01 -1.77404e+01  3.15652e+01
3
# CELL(abcABC): 1322.94304  1322.94304  1322.94304    90.00000    90.00000    90.00000  Step:        7100  Bead:      31 positions{angstrom}  cell{angstrom}
       E -8.86289e+00 -3.82313e+01 -3.25077e+01
       E  2.32043e+01  6.15871e+01 -1.16364e+01
       E  1.63014e+01  2.89557e+00  2.08141e+01
3
# CELL(abcABC): 1322.94304  1322.94304  1322.94304    90.00000    90.00000    90.00000  Step:        7200  Bead:      31 positions{angstrom}  cell{angstrom}
       E -2.13266e+01 -2.81592e+01 -6.84230e+01
       E -1.34692e+00  9.63676e+01  1.52328e+01
       E  1.69960e+01  1.34132e+01  2.21080e+01
3
# CELL(abcABC): 1322.94304  1322.94304  1322.94304    90.00000    90.00000    90.00000  Step:        7300  Bead:      31 positions{angstrom}  cell{angstrom}
       E  3.98618e+01 -7.20773e+00 -6.24871e+01
       E  6.84816e+00  4.98984e+01  8.71090e+00
       E  1.51916e+01 -2.51150e+00  4.65992e+00
3
# CELL(abcABC): 1322.94304  1322.94304  1322.94304    90.00000    90.00000    90.00000  Step:        7400  Bead:      31 positions{angstrom}  cell{angstrom}
       E  2.82710e+01 -3.41995e+00 -6.85938e+00
       E  1.94173e+01  5.52858e+01 -1.44587e+01
       E  3.48117e+01 -1.76410e-03 -2.94359e+01
3
# CELL(abcABC): 1322.94304  1322.94304  1322.94304    90.00000    90.00000    90.00000  Step:        7500  Bead:      31 positions{angstrom}  cell{angstrom}
       E -3.47685e+01 -1.61933e+01  2.55644e+01
       E  1.81183e+01  3.43657e+01 -1.15799e+01
       E  2.32957e+00 -1.06314e+01 -2.46838e+01
3
# CELL(abcABC): 1322.94304  1322.94304  1322.94304    90.00000    90.00000    90.00000  Step:        7600  Bead:      31 positions{angstrom}  cell{angstrom}
       E -1.12377e+01 -4.89470e+01 -2.49253e+00
       E  2.27238e+01  2.59331e+01 -8.58446e+00
       E -4.39148e+00  7.63247e+00 -4.08394e+01
3
# CELL(abcABC): 1322.94304  1322.94304  1322.94304    90.00000    90.00000    90.00000  Step:        7700  Bead:      31 positions{angstrom}  cell{angstrom}
       E  1.02295e+01 -3.91564e+01 -2.58922e+01
       E  4.64996e+01 -1.47482e+01  4.35130e+00
       E  1.40117e+01 -5.89938e+01 -5.64629e+01
3
# CELL(abcABC): 1322.94304  1322.94304  1322.94304    90.00000    90.00000    90.00000  Step:        7800  Bead:      31 positions{angstrom}  cell{angstrom}
       E  3.39894e+01 -4.21099e+01 -4.97015e+01
       E  1.79179e+01 -4.43088e+00 -4.48240e+01
       E  1.07525e+01 -5.02505e+01 -2.38605e+01
3
# CELL(abcABC): 1322.94304  1322.94304  1322.94304    90.00000    90.00000    90.00000  Step:        7900  Bead:      31 positions{angstrom}  cell{angstrom}
       E  5.42723e+01 -7.52221e+00 -3.29684e+01
       E  5.07415e+01  8.06070e+00 -4.58248e+01
       E  5.08871e+01 -2.68747e+01 -4.13633e+01
3
# CELL(abcABC): 1322.94304  1322.94304  1322.94304    90.00000    90.00000    90.00000  Step:        8000  Bead:      31 positions{angstrom}  cell{angstrom}
       E  5.34735e+01  4.91401e+00 -3.78187e+01
       E  1.47252e+01  2.20370e+01 -3.76182e+01
       E  9.91899e+00 -3.26123e+01 -1.18132e+01
3
# CELL(abcABC): 1322.94304  1322.94304  1322.94304    90.00000    90.00000    90.00000  Step:        8100  Bead:      31 positions{angstrom}  cell{angstrom}
       E  6.66202e+01  3.10316e+01 -2.38741e+01
       E  1.15228e+01  9.68054e+00 -5.60095e+01
       E -4.29070e+01 -3.94863e+01  1.11132e+01
3
# CELL(abcABC): 1322.94304  1322.94304  1322.94304    90.00000    90.00000    90.00000  Step:        8200  Bead:      31 positions{angstrom}  cell{angstrom}
       E  3.21856e+01  1.41051e+01 -1.89453e+01
       E  1.62932e+01  3.89713e+01 -6.20161e+00
       E -2.70508e+01 -5.43213e+01  1.19213e+01
3
# CELL(abcABC): 1322.94304  1322.94304  1322.94304    90.00000    90.00000    90.00000  Step:        8300  Bead:      31 positions{angstrom}  cell{angstrom}
       E  4.34900e+01  2.13274e+01 -2.38650e+01
       E  5.68555e+01  2.03834e+01  2.16153e+01
       E -1.10880e+01 -6.55761e+01  3.19363e+01
3
# CELL(abcABC): 1322.94304  1322.94304  1322.94304    90.00000    90.00000    90.00000  Step:        8400  Bead:      31 positions{angstrom}  cell{angstrom}
       E  3.42969e+01 -1.41038e+01 -2.94980e+01
       E  2.11697e+01  2.43735e+01  1.99497e+01
       E  2.65477e+00 -3.65526e+01  3.73366e+01
3
# CELL(abcABC): 1322.94304  1322.94304  1322.94304    90.00000    90.00000    90.00000  Step:        8500  Bead:      31 positions{angstrom}  cell{angstrom}
       E  1.30532e+01  8.93361e+00 -1.96243e+01
       E  2.10763e+01  4.33436e+01  3.79725e+01
       E  2.98137e+01  4.90686e+00  4.73594e+01
3
# CELL(abcABC): 1322.94304  1322.94304  1322.94304    90.00000    90.00000    90.00000  Step:        8600  Bead:      31 positions{angstrom}  cell{angstrom}
       E -1.47747e+01  5.03598e-01 -3.01695e+01
       E  5.58338e+01  6.86319e+00  3.22924e+01
       E  4.27388e+01 -1.27674e+00  2.30123e+01
3
# CELL(abcABC): 1322.94304  1322.94304  1322.94304    90.00000    90.00000    90.00000  Step:        8700  Bead:      31 positions{angstrom}  cell{angstrom}
       E -5.47200e+01  1.56676e+01 -3.25591e+01
       E  1.97881e+01 -5.90969e-01  2.64106e+00
       E  7.98556e+01 -1.41236e+01  3.82931e+01
3
# CELL(abcABC): 1322.94304  1322.94304  1322.94304    90.00000    90.00000    90.00000  Step:        8800  Bead:      31 positions{angstrom}  cell{angstrom}
       E -2.29474e+01  2.61456e+01 -3.04131e+01
       E  1.46689e+01 -2.71859e+01  3.15347e+01
       E  5.63886e+01 -5.98303e+01  2.87999e+01
3
# CELL(abcABC): 1322.94304  1322.94304  1322.94304    90.00000    90.00000    90.00000  Step:        8900  Bead:      31 positions{angstrom}  cell{angstrom}
       E -1.52693e+01  2.65444e+01 -2.67070e+01
       E -5.31494e+00 -4.28543e+01  5.13477e+01
       E  3.58127e+01 -1.04088e+02  5.47977e+01
3
# CELL(abcABC): 1322.94304  1322.94304  1322.94304    90.00000    90.00000    90.00000  Step:        9000  Bead:      31 positions{angstrom}  cell{angstrom}
       E -2.96160e+01  8.14258e+01 -1.91964e+00
       E -6.07665e+01 -5.25792e+01  2.83031e+01
       E  7.83264e+00 -7.28255e+01  6.38167e-01
3
# CELL(abcABC): 1322.94304  1322.94304  1322.94304    90.00000    90.00000    90.00000  Step:        9100  Bead:      31 positions{angstrom}  cell{angstrom}
       E  1.27296e+01  2.82282e+01  2.45560e+01
       E -3.54187e+01 -4.10778e-01  1.16515e+01
       E -5.23912e+00 -7.72931e+01 -5.98011e+00
3
# CELL(abcABC): 1322.94304  1322.94304  1322.94304    90.00000    90.00000    90.00000  Step:        9200  Bead:      31 positions{angstrom}  cell{angstrom}
       E  1.82011e+01  3.45347e+01 -5.43770e+00
       E -1.00897e+01  9.30547e+00  5.77928e+01
       E  1.84846e+01 -5.18440e+01 -1.23090e+01
3
# CELL(abcABC): 1322.94304  1322.94304  1322.94304    90.00000    90.00000    90.00000  Step:        9300  Bead:      31 positions{angstrom}  cell{angstrom}
       E  4.29641e+01  6.04107e+01 -7.04432e+01
       E -4.75334e+00 -5.57858e+01  4.80476e+01
       E  7.02611e+01 -1.48108e+01  1.27312e+01
3
# CELL(abcABC): 1322.94304  1322.94304  1322.94304    90.00000    90.00000    90.00000  Step:        9400  Bead:      31 positions{angstrom}  cell{angstrom}
       E  2.83933e+01  3.51038e+01 -3.88130e+01
       E  6.79233e+00 -5.25963e+01  1.04640e+01
       E  1.24675e+01 -1.11551e+00 -9.34430e+00
3
# CELL(abcABC): 1322.94304  1322.94304  1322.94304    90.00000    90.00000    90.00000  Step:        9500  Bead:      31 positions{angstrom}  cell{angstrom}
       E  2.00329e+01  1.04935e+01 -3.21617e+01
       E  9.29959e+00 -2.38655e+01  3.42415e+01
       E -3.88036e+00 -1.77594e+01 -1.89879e+01
3
# CELL(abcABC): 1322.94304  1322.94304  1322.94304    90.00000    90.00000    90.00000  Step:        9600  Bead:      31 positions{angstrom}  cell{angstrom}
       E -1.08716e+01 -6.02720e+00 -5.05892e+01
       E  2.83048e+01 -2.60957e+01  1.56446e+01
       E -8.09816e+00 -3.61669e+01 -1.19586e+01
3
# CELL(abcABC): 1322.94304  1322.94304  1322.94304    90.00000    90.00000    90.00000  Step:        9700  Bead:      31 positions{angstrom}  cell{angstrom}
       E -4.65559e+01 -7.03871e+01 -5.88518e+01
       E  5.11193e+01 -5.55311e+01 -2.43264e+01
       E -2.58114e+01 -5.40585e+00 -1.45380e+01
3
# CELL(abcABC): 1322.94304  1322.94304  1322.94304    90.00000    90.00000    90.00000  Step:        9800  Bead:      31 positions{angstrom}  cell{angstrom}
       E -1.18450e+01 -6.86887e+01 -6.62860e+01
       E  3.91553e+01 -7.93401e+01 -2.53132e+01
       E  1.18527e+00 -2.23069e+01 -7.38932e-01
3