3
# CELL(abcABC): 1322.94304  1322.94304  1322.94304    90.00000    90.00000    90.00000  Step:           0  Bead:      15 positions{angstrom}  cell{angstrom}
       E  0.00000e+00  0.00000e+00  0.00000e+00
       E  0.00000e+00  0.00000e+00  0.00000e+00
       E  0.00000e+00  0.00000e+00  0.00000e+00
3
# CELL(abcABC): 1322.94304  1322.94304  1322.94304    90.00000    90.00000    90.00000  Step:         100  Bead:      15 positions{angstrom}  cell{angstrom}
       E  7.46865e+00  9.09415e+00  2.55466e+01
       E  2.79758e+01 -5.19957e+00  9.19277e+00
       E -2.22121e+00  8.38306e-01 -3.38597e+01
3
# CELL(abcABC): 1322.94304  1322.94304  1322.94304    90.00000    90.00000    90.00000  Step:         200  Bead:      15 positions{angstrom}  cell{angstrom}
       E -2.15769e+00  9.02546e+00  4.73554e+00
       E  2.45199e+01 -3.59288e+01 -2.82253e+01
       E -4.21710e+00  1.92955e+01 -1.69252e+01
3
# CELL(abcABC): 1322.94304  1322.94304  1322.94304    90.00000    90.00000    90.00000  Step:         300  Bead:      15 positions{angstrom}  cell{angstrom}
       E -2.83031e+01  2.22979e+01  1.24368e+01
       E  1.68484e+01 -5.90589e+00 -2.39432e+01
       E -7.00058e+00  4.40853e+01  3.15841e-01
3
# CELL(abcABC): 1322.94304  1322.94304  1322.94304    90.00000    90.00000    90.00000  Step:         400  Bead:      15 positions{angstrom}  cell{angstrom}
       E -1.76664e+01  4.06831e+01  2.08531e+01
       E  1.30438e+01  2.54480e+01 -9.10726e-01
       E -4.21537e+01  2.03388e+01  1.33807e+01
3
# CELL(abcABC): 1322.94304  1322.94304  1322.94304    90.00000    90.00000    90.00000  Step:         500  Bead:      15 positions{angstrom}  cell{angstrom}
       E -2.99959e+01  1.26044e+01  1.55918e+00
       E  3.36194e+01  4.24480e+01  1.81587e+00
       E -3.80084e-01  1.47024e+01  2.73596e+01
3
# CELL(abcABC): 1322.94304  1322.94304  1322.94304    90.00000    90.00000    90.00000  Step:         600  Bead:      15 positions{angstrom}  cell{angstrom}
       E -5.15406e+00 -1.00352e+01 -3.11206e+01
       E  3.43063e+01 -7.15525e+00  7.55824e+00
       E -3.98101e+00  4.03942e+00 -1.10954e-01
3
# CELL(abcABC): 1322.94304  1322.94304  1322.94304    90.00000    90.00000    90.00000  Step:         700  Bead:      15 positions{angstrom}  cell{angstrom}
       E -1.49946e+01  5.94570e+00 -7.44990e+00
       E  5.00200e+00  5.18171e+01  6.14690e+00
       E -3.77468e+01  8.79601e+00  1.69426e+01
3
# CELL(abcABC): 1322.94304  1322.94304  1322.94304    90.00000    90.00000    90.00000  Step:         800  Bead:      15 positions{angstrom}  cell{angstrom}
       E  1.57943e-01  2.12350e+01  1.81824e+01
       E  8.55954e+00  4.39381e+01  1.71097e+00
       E -3.12066e+01 -2.30019e+01  3.29208e+01
3
# CELL(abcABC): 1322.94304  1322.94304  1322.94304    90.00000    90.00000    90.00000  Step:         900  Bead:      15 positions{angstrom}  cell{angstrom}
       E  3.60334e+00  1.50051e+01 -2.84659e-01
       E  2.71777e+01  4.83963e+01 -1.27851e+01
       E -3.95799e+01 -1.29573e+01  5.05944e+01
3
# CELL(abcABC): 1322.94304  1322.94304  1322.94304    90.00000    90.00000    90.00000  Step:        1000  Bead:      15 positions{angstrom}  cell{angstrom}
       E -5.52542e+00  2.73172e+00 -3.71599e+01
       E  1.02705e+01 -5.77723e-01 -4.63381e+01
       E -1.86783e+01 -3.26868e+01  5.00397e+01
3
# CELL(abcABC): 1322.94304  1322.94304  1322.94304    90.00000    90.00000    90.00000  Step:        1100  Bead:      15 positions{angstrom}  cell{angstrom}
       E  6.75625e+00 -2.91994e+01 -3.61338e+01
       E -9.31456e+00  1.66280e+01 -4.39225e+01
       E -1.11872e+01  5.09390e+01  4.58284e+00
3
# CELL(abcABC): 1322.94304  1322.94304  1322.94304    90.00000    90.00000    90.00000  Step:        1200  Bead:      15 positions{angstrom}  cell{angstrom}
       E  2.76760e+01 -1.45207e+01 -9.02476e+01
       E  9.05556e+00 -3.34436e+01  1.99249e+00
       E  4.86401e+00  4.32103e+01  2.54153e+01
3
# CELL(abcABC): 1322.94304  1322.94304  1322.94304    90.00000    90.00000    90.00000  Step:        1300  Bead:      15 positions{angstrom}  cell{angstrom}
       E -1.23937e+01  7.80847e+00 -8.14124e+01
       E  5.13374e+01 -1.15811e+01 -2.07019e+01
       E -4.02850e-01 -3.77001e+00 -9.78818e+00
3
# CELL(abcABC): 1322.94304  1322.94304  1322.94304    90.00000    90.00000    90.00000  Step:        1400  Bead:      15 positions{angstrom}  cell{angstrom}
       E -6.61351e+00  4.83248e+01 -8.89026e+01
       E -1.22985e-01 -7.14349e+00 -3.46584e+01
       E  1.88247e+01  1.11812e+01 -1.00068e+01
3
# CELL(abcABC): 1322.94304  1322.94304  1322.94304    90.00000    90.00000    90.00000  Step:        1500  Bead:      15 positions{angstrom}  cell{angstrom}
       E  1.03089e+01  2.73458e+01 -4.92789e+01
       E -6.88602e+00  7.25670e+00 -3.12429e+00
       E -1.86075e+00  2.54524e+00  2.05018e+01
3
# CELL(abcABC): 1322.94304  1322.94304  1322.94304    90.00000    90.00000    90.00000  Step:        1600  Bead:      15 positions{angstrom}  cell{angstrom}
       E -2.14287e+01  5.21648e+01 -4.41442e+01
       E  3.92526e+00  8.05258e+01 -6.34312e+00
       E -4.85933e+01  1.05339e+01  2.23044e+01
3
# CELL(abcABC): 1322.94304  1322.94304  1322.94304    90.00000    90.00000    90.00000  Step:        1700  Bead:      15 positions{angstrom}  cell{angstrom}
       E  1.37631e+01  9.54713e+00  3.19962e+01
       E  5.22916e+00  9.07217e+01  2.72905e+01
       E -4.53636e+01  2.50167e+01  1.85479e+01
3
# CELL(abcABC): 1322.94304  1322.94304  1322.94304    90.00000    90.00000    90.00000  Step:        1800  Bead:      15 positions{angstrom}  cell{angstrom}
       E  1.21569e+01  3.44847e+01  2.17929e+00
       E -5.43004e+01  6.93332e+01  3.09767e+01
       E -1.00728e+02  6.38489e+01  2.25644e+01
3
# CELL(abcABC): 1322.94304  1322.94304  1322.94304    90.00000    90.00000    90.00000  Step:        1900  Bead:      15 positions{angstrom}  cell{angstrom}
       E  9.92904e+00  2.86125e+01  3.88698e+01
       E -4.25836e+01  3.96343e+01  6.52185e-01
       E -3.31831e+01  3.55147e+01  4.65722e+01
3
# CELL(abcABC): 1322.94304  1322.94304  1322.94304    90.00000    90.00000    90.00000  Step:        2000  Bead:      15 positions{angstrom}  cell{angstrom}
       E -3.84823e+01 -1.88638e+01  3.98313e+01
       E -5.71346e+01  6.91658e+01  6.23477e+00
       E -9.54580e+01  7.41481e+01  3.70205e+01
3
# CELL(abcABC): 1322.94304  1322.94304  1322.94304    90.00000    90.00000    90.00000  Step:        2100  Bead:      15 positions{angstrom}  cell{angstrom}
       E -2.85838e+01 -4.48128e+01  8.54319e+01
       E -4.56589e+01  5.52833e+01 -4.87964e+00
       E -6.31291e+01  7.52057e+01  1.25570e+01
3
# CELL(abcABC): 1322.94304  1322.94304  1322.94304    90.00000    90.00000    90.00000  Step:        2200  Bead:      15 positions{angstrom}  cell{angstrom}
       E -2.63799e+01 -5.01899e+01  6.59089e+01
       E -3.15827e+01 -1.21307e+01 -2.32563e+01
       E -5.05239e+01  4.47914e+01  1.03684e+00
3
# CELL(abcABC): 1322.94304  1322.94304  1322.94304    90.00000    90.00000    90.00000  Step:        2300  Bead:      15 positions{angstrom}  cell{angstrom}
       E -4.62627e+01 -8.30116e+01  6.89139e+01
       E -7.16333e+00 -1.11853e+00  9.18392e+00
       E -2.53844e+01  3.02469e+01  4.39416e+01
3
# CELL(abcABC): 1322.94304  1322.94304  1322.94304    90.00000    90.00000    90.00000  Step:        2400  Bead:      15 positions{angstrom}  cell{angstrom}
       E -4.03877e+01 -5.38307e+01  2.19484e+01
       E -7.54640e-01  1.60695e+01 -6.97021e+00
       E -1.87504e+01  2.19288e+01  1.29033e+01
3
# CELL(abcABC): 1322.94304  1322.94304  1322.94304    90.00000    90.00000    90.00000  Step:        2500  Bead:      15 positions{angstrom}  cell{angstrom}
       E -3.52040e+01 -2.44061e+01  3.35271e+01
       E  2.05966e+01 -2.25085e+01 -4.18400e+01
       E  2.25255e+01 -9.58248e+00  7.98636e+00
3
# CELL(abcABC): 1322.94304  1322.94304  1322.94304    90.00000    90.00000    90.00000  Step:        2600  Bead:      15 positions{angstrom}  cell{angstrom}
       E -2.43878e+01 -1.92588e+01  3.74906e+01
       E -5.54923e+01 -3.17887e+01 -3.67748e+01
       E  1.30655e+00 -3.19795e+01  1.67730e+01
3
# CELL(abcABC): 1322.94304  1322.94304  1322.94304    90.00000    90.00000    90.00000  Step:        2700  Bead:      15 positions{angstrom}  cell{angstrom}
       E -4.04639e+01  3.13131e+01  1.86133e+01
       E -1.11392e+01 -7.55979e+00 -6.81195e+00
       E  4.47422e+01 -2.30644e+01  5.73548e+00
3
# CELL(abcABC): 1322.94304  1322.94304  1322.94304    90.00000    90.00000    90.00000  Step:        2800  Bead:      15 positions{angstrom}  cell{angstrom}
       E -2.05071e+01 -2.24637e+01  3.22692e+01
       E -4.06025e+01 -4.68411e+01 -5.27928e+00
       E  3.04099e+01 -2.45925e+01 -1.14802e+01
3
# CELL(abcABC): 1322.94304  1322.94304  1322.94304    90.00000    90.00000    90.00000  Step:        2900  Bead:      15 positions{angstrom}  cell{angstrom}
       E -7.16543e+01 -1.79374e+01  3.94767e+01
       E -3.88948e+01 -6.41769e+01 -1.32830e+01
       E -2.68418e+01  8.00980e-02  8.23069e-01
3
# CELL(abcABC): 1322.94304  1322.94304  1322.94304    90.00000    90.00000    90.00000  Step:        3000  Bead:      15 positions{angstrom}  cell{angstrom}
       E -5.25079e+01 -2.20046e+01  6.40017e+01
       E -3.14642e+01 -7.89424e+01  3.86602e+01
       E -2.93010e+01  3.16730e+01 -5.14064e+00
3
# CELL(abcABC): 1322.94304  1322.94304  1322.94304    90.00000    90.00000    90.00000  Step:        3100  Bead:      15 positions{angstrom}  cell{angstrom}
       E -4.32323e+01 -2.15708e+01  1.15025e+01
       E -6.24967e+01 -3.51684e+01  3.02481e+01
       E  2.29576e+00  5.52817e+01  1.53513e+01
3
# CELL(abcABC): 1322.94304  1322.94304  1322.94304    90.00000    90.00000    90.00000  Step:        3200  Bead:      15 positions{angstrom}  cell{angstrom}
       E -2.46838e+01  2.90391e-01 -1.05079e+01
       E -8.16493e+01 -1.87717e+01  5.33842e+01
       E  3.00932e+01  5.83506e+01  4.65012e+01
3
# CELL(abcABC): 1322.94304  1322.94304  1322.94304    90.00000    90.00000    90.00000  Step:        3300  Bead:      15 positions{angstrom}  cell{angstrom}
       E -2.97641e+01 -2.43524e+01 -3.19958e+00
       E -3.60073e+01 -1.05988e+01  7.13914e+01
       E -7.69772e+00  6.95618e+01  5.46348e+01
3
# CELL(abcABC): 1322.94304  1322.94304  1322.94304    90.00000    90.00000    90.00000  Step:        3400  Bead:      15 positions{angstrom}  cell{angstrom}
       E -8.55300e+01 -1.32025e+01  7.09193e+00
       E -4.63671e+01 -1.99654e+01  7.38118e+01
       E -3.58830e+00  6.99324e+01  4.57037e+01
3
# CELL(abcABC): 1322.94304  1322.94304  1322.94304    90.00000    90.00000    90.00000  Step:        3500  Bead:      15 positions{angstrom}  cell{angstrom}
       E -7.41785e+01  3.54055e+01  3.68898e+01
       E -5.44316e+00  6.70142e+00  2.01989e+01
       E -2.26159e+01  4.22191e+01  4.98922e+01
3
# CELL(abcABC): 1322.94304  1322.94304  1322.94304    90.00000    90.00000    90.00000  Step:        3600  Bead:      15 positions{angstrom}  cell{angstrom}
       E -6.54715e+01  8.55397e+00  3.90988e+01
       E  3.25369e+01  2.75523e+01  8.01122e+00
       E -1.44764e+01  4.05142e+01  1.94205e+01
3
# CELL(abcABC): 1322.94304  1322.94304  1322.94304    90.00000    90.00000    90.00000  Step:        3700  Bead:      15 positions{angstrom}  cell{angstrom}
       E -5.44525e+01 -1.47262e+01 -2.11687e+00
       E -1.26947e+01  6.76484e+00  1.56707e+01
       E -5.89895e+01  2.24914e+01  2.07948e+00
3
# CELL(abcABC): 1322.94304  1322.94304  1322.94304    90.00000    90.00000    90.00000  Step:        3800  Bead:      15 positions{angstrom}  cell{angstrom}
       E -7.99187e+01 -2.74088e+01 -3.61125e+01
       E -3.31048e+01 -2.85694e+01 -1.39826e+01
       E -6.90215e+01  6.41619e+00 -2.75417e+01
3
# CELL(abcABC): 1322.94304  1322.94304  1322.94304    90.00000    90.00000    90.00000  Step:        3900  Bead:      15 positions{angstrom}  cell{angstrom}
       E -9.91098e+01  1.72032e+01 -3.32495e+01
       E -3.75198e+01 -1.47968e+01  1.98245e+00
       E -3.42090e+01  1.25493e+01 -1.22422e+01
3
# CELL(abcABC): 1322.94304  1322.94304  1322.94304    90.00000    90.00000    90.00000  Step:        4000  Bead:      15 positions{angstrom}  cell{angstrom}
       E -8.69333e+01  3.35146e+01 -7.81752e+01
       E -4.73102e+01  8.92463e+00  6.05718e+01
       E -2.63202e+01  3.19928e+01 -4.49354e+00
3
# CELL(abcABC): 1322.94304  1322.94304  1322.94304    90.00000    90.00000    90.00000  Step:        4100  Bead:      15 positions{angstrom}  cell{angstrom}
       E -4.32675e+01  4.56443e+01 -6.50905e+01
       E -6.34229e+01  3.70213e+01  5.59915e+01
       E -2.79904e+01 -1.08365e+01  2.87832e+01
3
# CELL(abcABC): 1322.94304  1322.94304  1322.94304    90.00000    90.00000    90.00000  Step:        4200  Bead:      15 positions{angstrom}  cell{angstrom}
       E -2.40070e+01  1.92277e+01 -6.17398e+01
       E -4.70864e+01  3.95252e+01  2.83606e+01
       E  1.99188e+01 -3.87593e+00  4.81587e+01
3
# CELL(abcABC): 1322.94304  1322.94304  1322.94304    90.00000    90.00000    90.00000  Step:        4300  Bead:      15 positions{angstrom}  cell{angstrom}
       E -6.92003e+01  5.16208e+01 -4.85110e+01
       E -6.35338e+01  4.69674e+01  4.05382e+01
       E -1.75368e+01  2.51722e+01  7.98853e+01
3
# CELL(abcABC): 1322.94304  1322.94304  1322.94304    90.00000    90.00000    90.00000  Step:        4400  Bead:      15 positions{angstrom}  cell{angstrom}
       E -1.84098e+01  7.93175e+00 -4.67326e+01
       E -4.70322e+01  3.24954e+01 -1.18916e+01
       E -2.63650e+01 -4.95704e+00 -2.03184e+01
3
# CELL(abcABC): 1322.94304  1322.94304  1322.94304    90.00000    90.00000    90.00000  Step:        4500  Bead:      15 positions{angstrom}  cell{angstrom}
       E -5.53846e+01  2.48745e+01 -4.13631e+01
       E -7.47617e+01  6.21374e+01 -2.73216e+01
       E -2.83650e+00  4.35959e+00  1.02877e+01
3
# CELL(abcABC): 1322.94304  1322.94304  1322.94304    90.00000    90.00000    90.00000  Step:        4600  Bead:      15 positions{angstrom}  cell{angstrom}
       E -1.42559e+01  8.84276e+00 -5.76695e+01
       E -3.74972e+01  5.63567e+01 -3.81142e+01
       E  3.86464e+00  5.84969e+00 -3.77160e+00
3
# CELL(abcABC): 1322.94304  1322.94304  1322.94304    90.00000    90.00000    90.00000  Step:        4700  Bead:      15 positions{angstrom}  cell{angstrom}
       E -1.35916e+01  4.75954e+01 -2.19847e+01
       E -4.01301e+01  3.94539e+01 -5.79039e+01
       E  2.49320e+01  7.44621e+00 -3.51645e+00
3
# CELL(abcABC): 1322.94304  1322.94304  1322.94304    90.00000    90.00000    90.00000  Step:        4800  Bead:      15 positions{angstrom}  cell{angstrom}
       E -2.03176e+01  2.84824e+01 -1.00095e+01
       E -5.10948e+01  1.94572e+01 -4.26350e+01
       E  3.08464e+01  1.36790e+01  1.43462e+01
3
# CELL(abcABC): 1322.94304  1322.94304  1322.94304    90.00000    90.00000    90.00000  Step:        4900  Bead:      15 positions{angstrom}  cell{angstrom}
       E  1.21558e+01  2.36178e+01  2.37782e+01
       E -2.21324e+01  2.64837e+01 -2.10377e+01
       E  1.44689e+01  2.17085e+01 -1.38856e+00
3
# CELL(abcABC): 1322.94304  1322.94304  1322.94304    90.00000    90.00000    90.00000  Step:        5000  Bead:      15 positions{angstrom}  cell{angstrom}
       E -2.29116e+01 -2.26060e+01  2.60796e+01
       E -1.39679e+01  1.13334e+01 -7.54929e+01
       E  1.90601e+01 -2.28146e+01 -1.13395e+00
3
# CELL(abcABC): 1322.94304  1322.94304  1322.94304    90.00000    90.00000    90.00000  Step:        5100  Bead:      15 positions{angstrom}  cell{angstrom}
       E -5.91148e+01  7.49481e+00  2.63945e+01
       E -2.38137e+00  4.40885e+01 -5.28823e+01
       E -1.32579e+01 -1.29662e+01 -3.39274e+01
3
# CELL(abcABC): 1322.94304  1322.94304  1322.94304    90.00000    90.00000    90.00000  Step:        5200  Bead:      15 positions{angstrom}  cell{angstrom}
       E -3.57376e+01 -1.14206e+00  2.71203e+01
       E  5.77626e+00  3.49177e+01 -2.90501e+01
       E -1.24798e+01  4.25566e+01  2.09795e+01
3
# CELL(abcABC): 1322.94304  1322.94304  1322.94304    90.00000    90.00000    90.00000  Step:        5300  Bead:      15 positions{angstrom}  cell{angstrom}
       E -1.30683e+01 -7.33026e+00  1.90892e+01
       E -6.28723e+00  6.58822e+01 -1.03522e+00
       E -3.21559e+01  3.37162e+01  6.80814e+01
3
# CELL(abcABC): 1322.94304  1322.94304  1322.94304    90.00000    90.00000    90.00000  Step:        5400  Bead:      15 positions{angstrom}  cell{angstrom}
       E -1.20298e+01 -2.59183e+01  2.42462e+01
       E  1.15186e+01  3.14563e+01 -2.01363e+01
       E -4.28797e+01  2.65897e+01  6.72325e+01
3
# CELL(abcABC): 1322.94304  1322.94304  1322.94304    90.00000    90.00000    90.00000  Step:        5500  Bead:      15 positions{angstrom}  cell{angstrom}
       E -3.13458e+00  2.16205e+01  2.57452e+01
       E -9.65383e+00  3.86140e+00 -2.12496e+01
       E -4.49336e+01 -1.93434e+01  3.48130e+01
3
# CELL(abcABC): 1322.94304  1322.94304  1322.94304    90.00000    90.00000    90.00000  Step:        5600  Bead:      15 positions{angstrom}  cell{angstrom}
       E -2.42362e+01  8.59992e+00  5.39569e+00
       E -3.87068e+01 -2.07189e+00 -2.22957e+01
       E -5.84798e+01 -2.62545e+01  2.18516e+01
3
# CELL(abcABC): 1322.94304  1322.94304  1322.94304    90.00000    90.00000    90.00000  Step:        5700  Bead:      15 positions{angstrom}  cell{angstrom}
       E -7.64819e+00 -2.12116e+01  2.74128e+00
       E -2.94448e+01  5.03308e+01  4.30889e+00
       E -2.78312e+01  5.33905e+00  1.91075e+01
3
# CELL(abcABC): 1322.94304  1322.94304  1322.94304    90.00000    90.00000    90.00000  Step:        5800  Bead:      15 positions{angstrom}  cell{angstrom}
       E -2.79624e+01 -1.59437e+01 -1.19598e+01
       E -4.57135e+01  4.25500e+01 -3.48134e+01
       E -6.39081e+00  2.30927e+01 -2.39132e+01
3
# CELL(abcABC): 1322.94304  1322.94304  1322.94304    90.00000    90.00000    90.00000  Step:        5900  Bead:      15 positions{angstrom}  cell{angstrom}
       E  5.15788e+00 -6.06083e+00 -9.25769e+00
       E -2.19742e+01  1.66713e+01 -1.20036e+01
       E  5.92793e+00 -2.45210e+00 -6.37582e+00
3
# CELL(abcABC): 1322.94304  1322.94304  1322.94304    90.00000    90.00000    90.00000  Step:        6000  Bead:      15 positions{angstrom}  cell{angstrom}
       E  3.04347e+01 -2.34403e+01  1.18440e+01
       E -1.36635e+01 -8.47193e+00  8.36555e+00
       E -2.27421e+01  1.33106e+01  5.32346e+00
3
# CELL(abcABC): 1322.94304  1322.94304  1322.94304    90.00000    90.00000    90.00000  Step:        6100  Bead:      15 positions{angstrom}  cell{angstrom}
       E -3.15723e+01 -2.99068e+01 -2.18677e+01
       E  3.94330e+01 -1.69363e-01  3.24678e+01
       E  7.79083e+00  4.72741e+00 -1.26160e+01
3
# CELL(abcABC): 1322.94304  1322.94304  1322.94304    90.00000    90.00000    90.00000  Step:        6200  Bead:      15 positions{angstrom}  cell{angstrom}
       E -9.91040e+00 -3.79726e+01 -4.47361e+01
       E  6.62094e+01  3.76236e+01  8.98930e-01
       E  3.81859e+01  1.02961e+00 -8.82904e+00
3
# CELL(abcABC): 1322.94304  1322.94304  1322.94304    90.00000    90.00000    90.00000  Step:        6300  Bead:      15 positions{angstrom}  cell{angstrom}
       E -2.56347e+01 -7.10638e+01 -8.39940e+01
       E  7.25565e+01  1.62931e+01 -2.25555e+01
       E  2.39309e+01 -3.06596e+00 -1.18034e+01
3
# CELL(abcABC): 1322.94304  1322.94304  1322.94304    90.00000    90.00000    90.00000  Step:        6400  Bead:      15 positions{angstrom}  cell{angstrom}
       E -2.23079e+01 -7.52257e+01 -5.54372e+01
       E  5.89978e+01  4.53522e+01 -2.60005e+01
       E  1.33721e+01  2.47072e+01 -2.27052e+01
3
# CELL(abcABC): 1322.94304  1322.94304  1322.94304    90.00000    90.00000    90.00000  Step:        6500  Bead:      15 positions{angstrom}  cell{angstrom}
       E -3.64321e+00 -7.96593e+01 -7.73872e+01
       E -1.67480e+01 -6.58705e+00 -1.82461e+01
       E  4.53352e+01 -2.61836e+01 -3.08966e+01
3
# CELL(abcABC): 1322.94304  1322.94304  1322.94304    90.00000    90.00000    90.00000  Step:        6600  Bead:      15 positions{angstrom}  cell{angstrom}
       E -6.02390e+00 -5.39326e+01 -6.84291e+01
       E  1.39703e+01 -3.59007e+01 -1.29934e+01
       E  5.16092e+01 -2.21087e+01 -2.21164e+01
3
# CELL(abcABC): 1322.94304  1322.94304  1322.94304    90.00000    90.00000    90.00000  Step:        6700  Bead:      15 positions{angstrom}  cell{angstrom}
       E  5.58726e+00 -8.83107e+01 -5.26136e+01
       E  2.71650e+00 -2.87153e-01 -1.03823e+01
       E  2.00111e+01 -1.28420e+00 -1.40909e+01
3
# CELL(abcABC): 1322.94304  1322.94304  1322.94304    90.00000    90.00000    90.00000  Step:        6800  Bead:      15 positions{angstrom}  cell{angstrom}
       E -1.88264e+01 -1.17303e+02 -2.74880e+01
       E  2.66548e+01 -1.09153e+01  1.28072e+01
       E  5.29225e+01  1.09663e+01 -9.32263e+00
3
# CELL(abcABC): 1322.94304  1322.94304  1322.94304    90.00000    90.00000    90.00000  Step:        6900  Bead:      15 positions{angstrom}  cell{angstrom}
       E -4.92253e+00 -7.74583e+01 -2.74714e+01
       E  1.05226e+01 -2.95201e+01  1.39199e+01
       E  8.23108e+00  4.28813e+01  1.86909e+00
3
# CELL(abcABC): 1322.94304  1322.94304  1322.94304    90.00000    90.00000    90.00000  Step:        7000  Bead:      15 positions{angstrom}  cell{angstrom}
       E  4.83565e+01 -9.62940e+01 -2.12971e+01
       E -1.34069e+01 -3.31439e+01  4.83836e+01
       E  6.19374e+00  5.63250e+01 -1.25919e+01
3
# CELL(abcABC): 1322.94304  1322.94304  1322.94304    90.00000    90.00000    90.00000  Step:        7100  Bead:      15 positions{angstrom}  cell{angstrom}
       E  2.26431e+01 -2.02962e+01  3.51091e+00
       E -2.06239e+01 -3.86597e+00  3.05580e+01
       E  5.03038e+01  6.61327e+01 -3.34033e+01
3
# CELL(abcABC): 1322.94304  1322.94304  1322.94304    90.00000    90.00000    90.00000  Step:        7200  Bead:      15 positions{angstrom}  cell{angstrom}
       E  4.57719e+01 -6.26913e+00 -1.48166e+01
       E -3.00027e+01 -4.05488e+00  2.94912e+01
       E  3.00725e+01  2.65656e+01 -2.79574e+01
3
# CELL(abcABC): 1322.94304  1322.94304  1322.94304    90.00000    90.00000    90.00000  Step:        7300  Bead:      15 positions{angstrom}  cell{angstrom}
       E  2.14285e+01 -4.35166e+01 -3.91995e+01
       E -9.49608e+00  2.95582e+01  2.65184e+01
       E  7.32900e+00  2.82394e+01 -1.53891e+01
3
# CELL(abcABC): 1322.94304  1322.94304  1322.94304    90.00000    90.00000    90.00000  Step:        7400  Bead:      15 positions{angstrom}  cell{angstrom}
       E  4.34741e+01 -4.34519e+01 -5.58609e+01
       E -1.63902e+01  1.20013e+01 -1.73761e+01
       E  1.37717e+01  4.65253e+01 -1.25587e+00
3
# CELL(abcABC): 1322.94304  1322.94304  1322.94304    90.00000    90.00000    90.00000  Step:        7500  Bead:      15 positions{angstrom}  cell{angstrom}
       E  1.30146e+01 -7.61964e+01 -6.41880e+01
       E -2.45256e+01 -1.31309e+01 -2.21738e+01
       E  3.68772e+01  3.13951e+01  1.07738e+01
3
# CELL(abcABC): 1322.94304  1322.94304  1322.94304    90.00000    90.00000    90.00000  Step:        7600  Bead:      15 positions{angstrom}  cell{angstrom}
       E  2.91540e+01 -5.50835e+01 -3.41665e+01
       E  1.84074e+01 -3.30019e+01 -1.76915e+01
       E  6.73775e+00  1.76334e+01 -1.71684e+01
3
# CELL(abcABC): 1322.94304  1322.94304  1322.94304    90.00000    90.00000    90.00000  Step:        7700  Bead:      15 positions{angstrom}  cell{angstrom}
       E  2.55850e+01 -6.83632e+01 -9.26512e+00
       E  8.74311e+00 -4.53895e+01 -5.61313e+01
       E  2.10894e+01  3.30254e+01 -3.71105e+01
3
# CELL(abcABC): 1322.94304  1322.94304  1322.94304    90.00000    90.00000    90.00000  Step:        7800  Bead:      15 positions{angstrom}  cell{angstrom}
       E  2.18722e+01 -5.34719e+01 -3.59158e+01
       E -2.61185e+01 -3.43840e+01 -4.63810e+01
       E  1.10491e+01  1.24056e+01 -5.52925e+01
3
# CELL(abcABC): 1322.94304  1322.94304  1322.94304    90.00000    90.00000    90.00000  Step:        7900  Bead:      15 positions{angstrom}  cell{angstrom}
       E  4.77206e+01 -1.72755e+01 -2.16009e+01
       E  1.04623e+01  4.44251e+00 -1.99821e+01
       E -7.51284e+00 -1.51472e+01 -2.94217e+01
3
# CELL(abcABC): 1322.94304  1322.94304  1322.94304    90.00000    90.00000    90.00000  Step:        8000  Bead:      15 positions{angstrom}  cell{angstrom}
       E  2.85695e+01 -1.79873e+01 -4.52094e+01
       E -3.56398e+01  4.23510e+01 -3.06898e+01
       E -1.40998e+01 -2.74287e+01 -2.25578e+01
3
# CELL(abcABC): 1322.94304  1322.94304  1322.94304    90.00000    90.00000    90.00000  Step:        8100  Bead:      15 positions{angstrom}  cell{angstrom}
       E  1.04725e+01  1.51646e+01 -5.71696e+01
       E -2.99306e+00  4.24529e+01 -1.07604e+01
       E -6.52487e+00 -6.36509e+00  5.33959e+00
3
# CELL(abcABC): 1322.94304  1322.94304  1322.94304    90.00000    90.00000    90.00000  Step:        8200  Bead:      15 positions{angstrom}  cell{angstrom}
       E  4.93936e+01  2.96901e+01 -7.15957e+01
       E -1.22863e+01  7.44185e+00 -9.98010e+00
       E -1.80645e+01 -2.47228e+01  4.19867e+01
3
# CELL(abcABC): 1322.94304  1322.94304  1322.94304    90.00000    90.00000    90.00000  Step:        8300  Bead:      15 positions{angstrom}  cell{angstrom}
       E  3.19943e+01  2.90683e+01 -5.12340e+01
       E -4.37893e+00  4.40363e+01 -9.73587e-01
       E  1.32543e+01 -7.40481e+01  7.23949e+01
3
# CELL(abcABC): 1322.94304  1322.94304  1322.94304    90.00000    90.00000    90.00000  Step:        8400  Bead:      15 positions{angstrom}  cell{angstrom}
       E -8.21520e+00  2.03643e+01 -4.04092e+01
       E  2.02882e+01  5.24032e+01 -4.84073e+00
       E -1.85517e+01 -4.50153e+01  6.26649e+01
3
# CELL(abcABC): 1322.94304  1322.94304  1322.94304    90.00000    90.00000    90.00000  Step:        8500  Bead:      15 positions{angstrom}  cell{angstrom}
       E  9.78929e+00 -1.34621e+01 -2.03921e+01
       E  5.60541e+01  1.76100e+01 -2.12633e+01
       E  1.46111e+01 -4.39804e+01  4.84202e+01
3
# CELL(abcABC): 1322.94304  1322.94304  1322.94304    90.00000    90.00000    90.00000  Step:        8600  Bead:      15 positions{angstrom}  cell{angstrom}
       E  3.83539e-01 -8.40357e+00 -1.86103e+01
       E  4.62857e+01  1.82463e+01 -2.02589e+01
       E  1.70751e+01 -3.14141e+00  2.50523e+01
3
# CELL(abcABC): 1322.94304  1322.94304  1322.94304    90.00000    90.00000    90.00000  Step:        8700  Bead:      15 positions{angstrom}  cell{angstrom}
       E -1.98744e+01 -1.81119e+01 -8.45273e+00
       E  3.89104e+01  2.76346e+01 -3.41649e+01
       E  8.13449e+00 -3.55910e+01  5.09469e+01
3
# CELL(abcABC): 1322.94304  1322.94304  1322.94304    90.00000    90.00000    90.00000  Step:        8800  Bead:      15 positions{angstrom}  cell{angstrom}
       E -4.06380e+01  3.38086e+01  2.04568e+01
       E  3.47914e+01 -3.34709e+00 -1.08304e+01
       E  2.77048e+01 -7.86185e+01  4.85637e+01
3
# CELL(abcABC): 1322.94304  1322.94304  1322.94304    90.00000    90.00000    90.00000  Step:        8900  Bead:      15 positions{angstrom}  cell{angstrom}
       E -5.45674e+01  4.53373e+01  5.28695e+01
       E -1.15852e+01  9.32876e+00  3.23265e+01
       E  9.60289e+00 -4.71278e+01  5.20763e+01
3
# CELL(abcABC): 1322.94304  1322.94304  1322.94304    90.00000    90.00000    90.00000  Step:        9000  Bead:      15 positions{angstrom}  cell{angstrom}
       E -1.45124e+01  4.10624e+01  3.48370e+01
       E  6.68695e+00 -2.76107e+00  5.54958e+01
       E  4.40129e+01 -2.91334e+01  4.39885e+00
3
# CELL(abcABC): 1322.94304  1322.94304  1322.94304    90.00000    90.00000    90.00000  Step:        9100  Bead:      15 positions{angstrom}  cell{angstrom}
       E  5.21160e+00  6.13292e-02  2.34557e+01
       E -1.18716e+01  7.39794e+00  7.97869e+01
       E  3.59614e+01 -1.41697e+01  2.83117e+01
3
# CELL(abcABC): 1322.94304  1322.94304  1322.94304    90.00000    90.00000    90.00000  Step:        9200  Bead:      15 positions{angstrom}  cell{angstrom}
       E  4.68423e+01  1.93083e+01  2.32999e+01
       E -1.86454e+01  2.23204e+01  5.84792e+01
       E  2.96256e+01 -7.09774e+01  8.88111e+00
3
# CELL(abcABC): 1322.94304  1322.94304  1322.94304    90.00000    90.00000    90.00000  Step:        9300  Bead:      15 positions{angstrom}  cell{angstrom}
       E  1.10929e+01  3.02308e+01  8.63272e+00
       E -4.75006e+01 -2.33501e+01  1.71091e+01
       E  2.23242e+00 -7.13055e+01 -1.57631e+01
3
# CELL(abcABC): 1322.94304  1322.94304  1322.94304    90.00000    90.00000    90.00000  Step:        9400  Bead:      15 positions{angstrom}  cell{angstrom}
       E  1.44709e+01  5.68313e+01 -3.34042e+01
       E -4.61822e+01 -4.00945e+01  1.73546e+01
       E  1.80681e+01 -3.66037e+01 -1.41262e+01
3
# CELL(abcABC): 1322.94304  1322.94304  1322.94304    90.00000    90.00000    90.00000  Step:        9500  Bead:      15 positions{angstrom}  cell{angstrom}
       E  1.63073e+01  5.01440e+01 -6.45357e+01
       E -1.32734e+01 -4.30412e+01  2.35557e+01
       E  2.64659e+01 -1.07314e+01  3.60148e+01
3
# CELL(abcABC): 1322.94304  1322.94304  1322.94304    90.00000    90.00000    90.00000  Step:        9600  Bead:      15 positions{angstrom}  cell{angstrom}
       E  1.58199e+01  1.28904e+01 -4.87712e+01
       E  2.31648e+01 -4.72469e+01  2.51789e+01
       E  1.57751e+01 -1.84143e+01  1.53668e+01
3
# CELL(abcABC): 1322.94304  1322.94304  1322.94304    90.00000    90.00000    90.00000  Step:        9700  Bead:      15 positions{angstrom}  cell{angstrom}
       E  2.22776e+01 -5.22704e+01 -2.01233e+01
       E  4.79948e+01 -8.19777e+01  3.27711e+01
       E  1.25068e+01  1.27033e+01  1.88405e+01
3
# CELL(abcABC): 1322.94304  1322.94304  1322.94304    90.00000    90.00000    90.00000  Step:        9800  Bead:      15 positions{angstrom}  cell{angstrom}
       E -3.84670e+01 -5.48594e+01 -4.15895e+01
       E  2.56393e+01 -8.90335e+01 -6.93632e+00
       E  1.37479e+01 -2.17975e+01  2.13440e+01
3