3
# CELL(abcABC): 1322.94304  1322.94304  1322.94304    90.00000    90.00000    90.00000  Step:           0  Bead:      26 positions{angstrom}  cell{angstrom}
       E  0.00000e+00  0.00000e+00  0.00000e+00
       E  0.00000e+00  0.00000e+00  0.00000e+00
       E  0.00000e+00  0.00000e+00  0.00000e+00
3
# CELL(abcABC): 1322.94304  1322.94304  1322.94304    90.00000    90.00000    90.00000  Step:         100  Bead:      26 positions{angstrom}  cell{angstrom}
       E  2.82504e+01 -8.05171e+00  1.00004e+01
       E -3.52250e+00 -5.99845e+01  1.76189e+01
       E  1.57651e-01 -1.56746e+00 -1.56908e+01
3
# CELL(abcABC): 1322.94304  1322.94304  1322.94304    90.00000    90.00000    90.00000  Step:         200  Bead:      26 positions{angstrom}  cell{angstrom}
       E -2.00715e+01 -1.28481e+01  3.91727e+01
       E -1.77757e+01 -4.51834e+01  2.82802e+01
       E  3.60756e+01  1.59800e+01 -4.69255e-01
3
# CELL(abcABC): 1322.94304  1322.94304  1322.94304    90.00000    90.00000    90.00000  Step:         300  Bead:      26 positions{angstrom}  cell{angstrom}
       E  1.22569e+01  1.22609e+00  2.01055e+01
       E -2.06622e+01 -2.52149e+01 -1.04891e+01
       E  4.51166e+01  1.52074e+00  6.76827e+00
3
# CELL(abcABC): 1322.94304  1322.94304  1322.94304    90.00000    90.00000    90.00000  Step:         400  Bead:      26 positions{angstrom}  cell{angstrom}
       E  1.76275e+01  1.78069e+01 -4.07559e+00
       E -2.87931e+01 -2.25420e+01 -1.30817e+00
       E  5.57377e+01  1.85174e+00 -3.36063e+01
3
# CELL(abcABC): 1322.94304  1322.94304  1322.94304    90.00000    90.00000    90.00000  Step:         500  Bead:      26 positions{angstrom}  cell{angstrom}
       E  4.03033e+01 -2.81550e+01 -2.68493e+01
       E -1.97848e+01  1.12831e+00  8.59454e+00
       E  5.39245e+01 -5.22590e+00  4.22048e+00
3
# CELL(abcABC): 1322.94304  1322.94304  1322.94304    90.00000    90.00000    90.00000  Step:         600  Bead:      26 positions{angstrom}  cell{angstrom}
       E  4.14810e+01 -1.28008e+01  4.43888e+00
       E -2.37784e+01 -7.78332e+00  3.65692e+01
       E  4.16353e+01  2.61080e+01  3.08633e+01
3
# CELL(abcABC): 1322.94304  1322.94304  1322.94304    90.00000    90.00000    90.00000  Step:         700  Bead:      26 positions{angstrom}  cell{angstrom}
       E  2.95281e+01 -4.22404e+00  9.18752e+00
       E -1.99949e+01 -1.57904e+01  3.71605e+01
       E -2.50164e+01  1.59449e+01  4.14718e+01
3
# CELL(abcABC): 1322.94304  1322.94304  1322.94304    90.00000    90.00000    90.00000  Step:         800  Bead:      26 positions{angstrom}  cell{angstrom}
       E  4.77207e+01 -5.31125e-01  1.80579e+01
       E  2.13175e+01  1.36368e+01  3.64621e+01
       E -2.50097e+01  1.22990e+01  3.86806e+01
3
# CELL(abcABC): 1322.94304  1322.94304  1322.94304    90.00000    90.00000    90.00000  Step:         900  Bead:      26 positions{angstrom}  cell{angstrom}
       E  1.13948e+01  2.33585e+00  2.53208e+00
       E -5.25854e+01  1.91799e+01  2.05561e+01
       E  1.01504e+00 -7.50601e+00  7.67160e+01
3
# CELL(abcABC): 1322.94304  1322.94304  1322.94304    90.00000    90.00000    90.00000  Step:        1000  Bead:      26 positions{angstrom}  cell{angstrom}
       E  1.09412e+01  3.98754e+01  9.44591e+00
       E -3.45644e+01  4.24372e+01  1.47742e+01
       E  2.23092e+01 -6.11126e+00  2.56660e+01
3
# CELL(abcABC): 1322.94304  1322.94304  1322.94304    90.00000    90.00000    90.00000  Step:        1100  Bead:      26 positions{angstrom}  cell{angstrom}
       E  9.83253e+00 -9.10334e+00 -1.18474e+01
       E -1.95113e+01  4.42617e+01  9.28225e+00
       E  3.53183e+01 -6.66608e+00 -1.90201e+01
3
# CELL(abcABC): 1322.94304  1322.94304  1322.94304    90.00000    90.00000    90.00000  Step:        1200  Bead:      26 positions{angstrom}  cell{angstrom}
       E  4.71864e-01 -3.29376e+01 -1.68413e+01
       E -7.16247e+00  3.11015e+01  7.25540e-01
       E  5.23378e+01  7.99050e+01 -1.50352e+01
3
# CELL(abcABC): 1322.94304  1322.94304  1322.94304    90.00000    90.00000    90.00000  Step:        1300  Bead:      26 positions{angstrom}  cell{angstrom}
       E -6.07186e+00  5.39568e+00 -3.26537e+01
       E -3.13936e+01  3.48951e+01 -4.89646e+01
       E  2.15592e+01  3.67756e+01 -4.02074e+01
3
# CELL(abcABC): 1322.94304  1322.94304  1322.94304    90.00000    90.00000    90.00000  Step:        1400  Bead:      26 positions{angstrom}  cell{angstrom}
       E -3.40871e+00  5.33545e+01 -5.17844e+01
       E -3.99911e+01  1.96706e+01 -9.07283e+00
       E  3.52635e+01  6.56517e-01 -1.60754e+01
3
# CELL(abcABC): 1322.94304  1322.94304  1322.94304    90.00000    90.00000    90.00000  Step:        1500  Bead:      26 positions{angstrom}  cell{angstrom}
       E -3.10468e+01  4.87526e+01 -7.89284e+01
       E -5.61222e+01  3.83081e+01 -1.71174e+01
       E  2.56974e+01 -9.54365e+00  9.98443e-01
3
# CELL(abcABC): 1322.94304  1322.94304  1322.94304    90.00000    90.00000    90.00000  Step:        1600  Bead:      26 positions{angstrom}  cell{angstrom}
       E -1.11399e+01  2.68125e+01 -8.74679e+01
       E -3.51203e+01  5.51867e+01  4.13838e+01
       E -1.74149e+01  5.17398e+00 -1.90004e+01
3
# CELL(abcABC): 1322.94304  1322.94304  1322.94304    90.00000    90.00000    90.00000  Step:        1700  Bead:      26 positions{angstrom}  cell{angstrom}
       E -5.47805e+01  3.00807e+01 -6.14825e+00
       E -3.14658e+01  8.72820e+01  3.94722e+01
       E -2.21253e+01 -8.21796e+00  9.17855e+00
3
# CELL(abcABC): 1322.94304  1322.94304  1322.94304    90.00000    90.00000    90.00000  Step:        1800  Bead:      26 positions{angstrom}  cell{angstrom}
       E -1.26783e+01  3.40318e+01  3.00368e+01
       E -7.98688e+01  5.79654e+01 -5.73967e+00
       E -2.73948e+01 -5.39098e+00  1.08537e+01
3
# CELL(abcABC): 1322.94304  1322.94304  1322.94304    90.00000    90.00000    90.00000  Step:        1900  Bead:      26 positions{angstrom}  cell{angstrom}
       E -1.50168e+01 -7.90758e+00  2.30315e+01
       E -4.23552e+01  7.03367e+01 -6.80784e+00
       E -3.11115e+01  4.42927e+00  3.04570e+01
3
# CELL(abcABC): 1322.94304  1322.94304  1322.94304    90.00000    90.00000    90.00000  Step:        2000  Bead:      26 positions{angstrom}  cell{angstrom}
       E -2.37132e+01 -2.11123e+01  5.09522e+01
       E -4.79396e+01  7.14628e+01 -1.12724e+01
       E -7.40905e+01  9.59652e+00 -1.36383e+01
3
# CELL(abcABC): 1322.94304  1322.94304  1322.94304    90.00000    90.00000    90.00000  Step:        2100  Bead:      26 positions{angstrom}  cell{angstrom}
       E -1.01342e+00 -4.18118e+01  2.66394e+01
       E -4.71234e+01  4.92306e+01  2.15873e+01
       E -2.29993e+01  4.33089e+01 -8.02352e+00
3
# CELL(abcABC): 1322.94304  1322.94304  1322.94304    90.00000    90.00000    90.00000  Step:        2200  Bead:      26 positions{angstrom}  cell{angstrom}
       E -3.82418e+00 -6.29962e+01  2.49841e+01
       E -3.39588e+01  6.04366e+01  4.50931e+00
       E -8.25378e+00 -1.12120e+00 -1.18966e+01
3
# CELL(abcABC): 1322.94304  1322.94304  1322.94304    90.00000    90.00000    90.00000  Step:        2300  Bead:      26 positions{angstrom}  cell{angstrom}
       E -1.49113e+01 -7.44179e+01 -1.17138e+01
       E -3.15268e+01  5.98176e+01  8.59396e+00
       E -4.64687e+01 -8.59022e+00 -2.89814e+01
3
# CELL(abcABC): 1322.94304  1322.94304  1322.94304    90.00000    90.00000    90.00000  Step:        2400  Bead:      26 positions{angstrom}  cell{angstrom}
       E -2.89230e+01 -5.98473e+01 -9.80225e-01
       E -4.55664e+01  3.13728e+01  5.19936e+00
       E -1.47901e+01 -4.25480e+01 -4.58305e+01
3
# CELL(abcABC): 1322.94304  1322.94304  1322.94304    90.00000    90.00000    90.00000  Step:        2500  Bead:      26 positions{angstrom}  cell{angstrom}
       E -3.80037e+01 -1.95239e+00  2.85306e+01
       E -3.92738e+01 -2.52334e+01 -1.59737e+01
       E  2.34445e+01 -4.42884e+01  9.91219e+00
3
# CELL(abcABC): 1322.94304  1322.94304  1322.94304    90.00000    90.00000    90.00000  Step:        2600  Bead:      26 positions{angstrom}  cell{angstrom}
       E -4.78491e+01 -1.96410e+01  4.30247e+01
       E -7.27266e+01 -1.90364e+01  2.63495e+01
       E  3.84537e+01 -5.07437e+01  4.00179e+01
3
# CELL(abcABC): 1322.94304  1322.94304  1322.94304    90.00000    90.00000    90.00000  Step:        2700  Bead:      26 positions{angstrom}  cell{angstrom}
       E -5.66090e+01 -6.13672e+01  6.94566e+01
       E -4.41718e+01 -2.54044e+01  4.94671e+00
       E  1.09978e+01 -5.80936e+01  4.12836e+01
3
# CELL(abcABC): 1322.94304  1322.94304  1322.94304    90.00000    90.00000    90.00000  Step:        2800  Bead:      26 positions{angstrom}  cell{angstrom}
       E -4.60977e+01 -4.66924e+01  8.20538e+01
       E -5.61587e+01 -2.47962e+01  1.69940e+01
       E  2.29045e+01 -3.10088e+01  1.04268e+01
3
# CELL(abcABC): 1322.94304  1322.94304  1322.94304    90.00000    90.00000    90.00000  Step:        2900  Bead:      26 positions{angstrom}  cell{angstrom}
       E -6.83983e+01 -7.93239e+01  7.21820e+01
       E -5.85134e+01 -1.14801e+01  2.26613e+01
       E  3.83010e+01 -5.41128e+01  2.92831e+01
3
# CELL(abcABC): 1322.94304  1322.94304  1322.94304    90.00000    90.00000    90.00000  Step:        3000  Bead:      26 positions{angstrom}  cell{angstrom}
       E -8.74526e+01 -3.88032e+01  3.43289e+01
       E -6.43579e+01 -5.79730e+01  3.70956e+01
       E  2.71248e+01 -1.72524e+01 -4.54844e+00
3
# CELL(abcABC): 1322.94304  1322.94304  1322.94304    90.00000    90.00000    90.00000  Step:        3100  Bead:      26 positions{angstrom}  cell{angstrom}
       E -8.06375e+01 -4.59868e+01  2.36528e+01
       E -6.30843e+01 -2.91771e+01  9.72412e+01
       E  6.06575e+01  2.77308e+01 -7.97874e+00
3
# CELL(abcABC): 1322.94304  1322.94304  1322.94304    90.00000    90.00000    90.00000  Step:        3200  Bead:      26 positions{angstrom}  cell{angstrom}
       E -8.40149e+01 -5.51749e+01  4.86887e+01
       E -4.61764e+01  1.34031e+01  6.64285e+01
       E  3.83496e+01  7.77087e+00  4.30145e+00
3
# CELL(abcABC): 1322.94304  1322.94304  1322.94304    90.00000    90.00000    90.00000  Step:        3300  Bead:      26 positions{angstrom}  cell{angstrom}
       E -8.11217e+01  1.68608e+01  4.90126e+01
       E -5.80468e+01  6.52869e+01  7.13630e+01
       E  5.22032e+01  1.76382e+01 -6.30441e+00
3
# CELL(abcABC): 1322.94304  1322.94304  1322.94304    90.00000    90.00000    90.00000  Step:        3400  Bead:      26 positions{angstrom}  cell{angstrom}
       E -1.12457e+02  1.41003e+01  1.04974e+02
       E -3.13772e+01  3.39331e+01  3.58643e+01
       E  1.65844e+01  2.84148e+01  3.67025e+01
3
# CELL(abcABC): 1322.94304  1322.94304  1322.94304    90.00000    90.00000    90.00000  Step:        3500  Bead:      26 positions{angstrom}  cell{angstrom}
       E -1.09434e+02  2.20174e+00  9.42992e+01
       E -2.92281e+01  1.39255e+01  3.97037e+01
       E  9.49530e+00  6.71303e-01  2.04479e+01
3
# CELL(abcABC): 1322.94304  1322.94304  1322.94304    90.00000    90.00000    90.00000  Step:        3600  Bead:      26 positions{angstrom}  cell{angstrom}
       E -1.11329e+02 -5.25736e+01  2.64045e+01
       E  3.98599e+00  3.20821e+01  7.28094e+01
       E -6.84258e+01 -2.33833e+01  1.35814e+01
3
# CELL(abcABC): 1322.94304  1322.94304  1322.94304    90.00000    90.00000    90.00000  Step:        3700  Bead:      26 positions{angstrom}  cell{angstrom}
       E -1.03181e+02 -2.68795e+01  8.84559e+00
       E -8.32672e+00  8.91881e-01  2.84685e+01
       E -4.82595e+01 -4.31764e+01  2.06818e+01
3
# CELL(abcABC): 1322.94304  1322.94304  1322.94304    90.00000    90.00000    90.00000  Step:        3800  Bead:      26 positions{angstrom}  cell{angstrom}
       E -5.85034e+01  1.13047e+00  1.58689e+00
       E -1.97632e+01 -2.16692e+01  2.56501e+01
       E  3.09837e+00 -6.92077e+01  3.86745e-01
3
# CELL(abcABC): 1322.94304  1322.94304  1322.94304    90.00000    90.00000    90.00000  Step:        3900  Bead:      26 positions{angstrom}  cell{angstrom}
       E -5.01937e+01 -3.64663e+00  2.57417e+00
       E -2.04360e+01 -1.45457e+01  7.07647e+01
       E -3.46359e+00 -4.80646e+01  2.34606e+00
3
# CELL(abcABC): 1322.94304  1322.94304  1322.94304    90.00000    90.00000    90.00000  Step:        4000  Bead:      26 positions{angstrom}  cell{angstrom}
       E -5.95997e+01  7.68980e+00 -4.86376e+01
       E -4.98790e+01  3.49667e+00  3.57885e+01
       E -2.64536e+01 -2.94562e+01 -5.11502e+01
3
# CELL(abcABC): 1322.94304  1322.94304  1322.94304    90.00000    90.00000    90.00000  Step:        4100  Bead:      26 positions{angstrom}  cell{angstrom}
       E -5.62395e+01 -3.00821e+01 -8.23726e+01
       E -8.61244e+01  2.37358e+01  3.55474e+01
       E -3.97702e+01 -1.92820e+01  1.42566e+01
3
# CELL(abcABC): 1322.94304  1322.94304  1322.94304    90.00000    90.00000    90.00000  Step:        4200  Bead:      26 positions{angstrom}  cell{angstrom}
       E -8.42714e+01 -3.14204e+01 -1.12458e+02
       E -6.68554e+01  1.95040e+01 -3.54358e+01
       E  4.04562e+00  9.70894e+00  2.59883e+00
3
# CELL(abcABC): 1322.94304  1322.94304  1322.94304    90.00000    90.00000    90.00000  Step:        4300  Bead:      26 positions{angstrom}  cell{angstrom}
       E -4.81691e+01  1.97199e+01 -7.00863e+01
       E -4.67592e+01  4.76712e+01 -4.39608e+01
       E  1.54930e+01  6.76459e+00  1.36962e+01
3
# CELL(abcABC): 1322.94304  1322.94304  1322.94304    90.00000    90.00000    90.00000  Step:        4400  Bead:      26 positions{angstrom}  cell{angstrom}
       E -2.95825e+01  2.58870e+01 -4.30966e+01
       E -6.25031e+01  1.86241e+00 -4.43440e+01
       E  3.25640e+01 -4.54487e+00  5.21009e+00
3
# CELL(abcABC): 1322.94304  1322.94304  1322.94304    90.00000    90.00000    90.00000  Step:        4500  Bead:      26 positions{angstrom}  cell{angstrom}
       E -6.92339e+01  1.23825e+01 -4.16480e+01
       E -4.83626e+01 -2.30235e+00 -1.06362e+01
       E  3.57550e+01 -2.21205e+01  1.09044e+01
3
# CELL(abcABC): 1322.94304  1322.94304  1322.94304    90.00000    90.00000    90.00000  Step:        4600  Bead:      26 positions{angstrom}  cell{angstrom}
       E -6.54075e+01  6.43215e+01 -6.16076e+01
       E -4.04658e+01  3.26333e+00 -1.25462e+01
       E -1.51416e+00 -9.14933e+00  3.97903e+01
3
# CELL(abcABC): 1322.94304  1322.94304  1322.94304    90.00000    90.00000    90.00000  Step:        4700  Bead:      26 positions{angstrom}  cell{angstrom}
       E -4.77210e+01  5.71097e+01 -1.00918e+02
       E -4.28939e+01 -5.61347e+00 -3.18245e+01
       E -3.21903e+01 -3.04519e+01  5.53618e+01
3
# CELL(abcABC): 1322.94304  1322.94304  1322.94304    90.00000    90.00000    90.00000  Step:        4800  Bead:      26 positions{angstrom}  cell{angstrom}
       E -5.59027e+01  5.40782e+01 -1.11385e+02
       E -1.35361e+01 -1.31419e+01 -1.74447e+01
       E  1.55547e+00 -2.26278e+01 -9.97509e-01
3
# CELL(abcABC): 1322.94304  1322.94304  1322.94304    90.00000    90.00000    90.00000  Step:        4900  Bead:      26 positions{angstrom}  cell{angstrom}
       E -3.54441e+01  3.82423e+01 -6.79754e+01
       E -1.71220e+01 -2.91101e+00 -3.92651e+01
       E  9.15036e+00 -4.32104e+01 -6.27645e-01
3
# CELL(abcABC): 1322.94304  1322.94304  1322.94304    90.00000    90.00000    90.00000  Step:        5000  Bead:      26 positions{angstrom}  cell{angstrom}
       E  2.41759e+01  3.69704e+01 -7.76728e-01
       E  1.51391e+01 -9.57684e-01 -5.57735e+01
       E  7.58698e+00 -4.35220e+01  4.85220e+00
3
# CELL(abcABC): 1322.94304  1322.94304  1322.94304    90.00000    90.00000    90.00000  Step:        5100  Bead:      26 positions{angstrom}  cell{angstrom}
       E -2.10582e+01  3.60591e+01 -7.53608e+00
       E  2.83380e+01  3.22404e+01 -6.66607e+00
       E  3.37230e+01  1.25953e+01  6.65556e+00
3
# CELL(abcABC): 1322.94304  1322.94304  1322.94304    90.00000    90.00000    90.00000  Step:        5200  Bead:      26 positions{angstrom}  cell{angstrom}
       E -3.31628e+01 -2.19950e+01 -1.85325e+01
       E  2.90657e+01  3.55186e+01 -1.29592e+01
       E -3.25420e-01 -9.91244e-01  3.29450e+01
3
# CELL(abcABC): 1322.94304  1322.94304  1322.94304    90.00000    90.00000    90.00000  Step:        5300  Bead:      26 positions{angstrom}  cell{angstrom}
       E -2.48528e+01 -2.65499e+01 -4.63175e+01
       E -4.00665e+00  2.25068e+01 -1.36258e+01
       E -4.90268e+01  2.97643e+01  5.43237e+01
3
# CELL(abcABC): 1322.94304  1322.94304  1322.94304    90.00000    90.00000    90.00000  Step:        5400  Bead:      26 positions{angstrom}  cell{angstrom}
       E -2.79132e+00  1.98976e+00 -2.64934e+01
       E -7.07336e+00  5.33845e+01 -1.29456e+01
       E -3.91506e+01  3.40134e+01  3.06399e+01
3
# CELL(abcABC): 1322.94304  1322.94304  1322.94304    90.00000    90.00000    90.00000  Step:        5500  Bead:      26 positions{angstrom}  cell{angstrom}
       E -8.86525e+00  9.08997e-01 -1.60895e+01
       E  8.03314e+00  2.73742e+01 -1.11262e+01
       E -2.47804e+01  4.08636e+01  2.08980e+01
3
# CELL(abcABC): 1322.94304  1322.94304  1322.94304    90.00000    90.00000    90.00000  Step:        5600  Bead:      26 positions{angstrom}  cell{angstrom}
       E -1.32989e+01  1.77582e+01 -3.60900e+01
       E  1.16255e+01  2.55154e+01  1.70105e+01
       E  1.63286e+00  5.43723e+00  2.56475e+01
3
# CELL(abcABC): 1322.94304  1322.94304  1322.94304    90.00000    90.00000    90.00000  Step:        5700  Bead:      26 positions{angstrom}  cell{angstrom}
       E -1.18417e+01 -5.20653e-01 -7.33393e+01
       E  9.17629e+00  1.24676e+01  1.36830e+01
       E -2.68435e+01 -2.09461e+00  8.78963e+00
3
# CELL(abcABC): 1322.94304  1322.94304  1322.94304    90.00000    90.00000    90.00000  Step:        5800  Bead:      26 positions{angstrom}  cell{angstrom}
       E  1.00318e+01  7.58220e+00 -1.64573e+01
       E -8.73008e+00 -1.29878e+01  1.60437e+00
       E -5.98078e+00 -3.21521e+01 -1.19775e+01
3
# CELL(abcABC): 1322.94304  1322.94304  1322.94304    90.00000    90.00000    90.00000  Step:        5900  Bead:      26 positions{angstrom}  cell{angstrom}
       E -1.20447e+01 -1.75213e+01  4.87926e+00
       E  2.13573e+01  1.44038e+01 -1.60255e+01
       E  1.11294e+01 -2.61803e+01  2.28649e+01
3
# CELL(abcABC): 1322.94304  1322.94304  1322.94304    90.00000    90.00000    90.00000  Step:        6000  Bead:      26 positions{angstrom}  cell{angstrom}
       E -1.34266e+01 -5.57544e+01  9.82872e-01
       E  2.42273e+01  1.64108e+01 -7.53059e+01
       E -1.17228e+01 -4.39966e+01  2.81699e+01
3
# CELL(abcABC): 1322.94304  1322.94304  1322.94304    90.00000    90.00000    90.00000  Step:        6100  Bead:      26 positions{angstrom}  cell{angstrom}
       E -3.08972e+01 -5.53475e+01 -2.89159e+01
       E  9.06185e+01 -1.74143e+01 -6.78870e+01
       E  1.10717e+01 -8.19210e+00 -1.23943e+01
3
# CELL(abcABC): 1322.94304  1322.94304  1322.94304    90.00000    90.00000    90.00000  Step:        6200  Bead:      26 positions{angstrom}  cell{angstrom}
       E -1.48878e+01 -4.09281e+01 -5.02307e+01
       E  5.64258e+01  3.35752e+01  1.14063e+01
       E  2.69002e+01 -7.08150e+01  1.59615e+01
3
# CELL(abcABC): 1322.94304  1322.94304  1322.94304    90.00000    90.00000    90.00000  Step:        6300  Bead:      26 positions{angstrom}  cell{angstrom}
       E  1.01021e+01 -5.87186e+01 -6.97437e+01
       E  8.09202e+01 -1.47190e+01 -4.21947e+01
       E  1.23515e+01 -7.18927e+01  8.60777e-01
3
# CELL(abcABC): 1322.94304  1322.94304  1322.94304    90.00000    90.00000    90.00000  Step:        6400  Bead:      26 positions{angstrom}  cell{angstrom}
       E  6.53289e+01 -7.37606e+01 -8.09319e+01
       E  2.82941e+01  1.24304e-01 -8.38774e+01
       E  3.83100e+01 -5.92154e+01  1.60839e+01
3
# CELL(abcABC): 1322.94304  1322.94304  1322.94304    90.00000    90.00000    90.00000  Step:        6500  Bead:      26 positions{angstrom}  cell{angstrom}
       E  4.89181e+01 -8.70729e+01 -1.02272e+02
       E -1.23534e+01  2.00113e+01 -6.64159e+01
       E  4.18380e+01 -2.65903e+01 -1.90536e+01
3
# CELL(abcABC): 1322.94304  1322.94304  1322.94304    90.00000    90.00000    90.00000  Step:        6600  Bead:      26 positions{angstrom}  cell{angstrom}
       E  4.39104e+00 -9.37593e+01 -7.18275e+01
       E  1.59596e+01  2.32767e+01 -6.21097e+01
       E  6.24894e+00  5.39490e+00  2.96498e-01
3
# CELL(abcABC): 1322.94304  1322.94304  1322.94304    90.00000    90.00000    90.00000  Step:        6700  Bead:      26 positions{angstrom}  cell{angstrom}
       E  3.13225e+01 -1.03545e+02 -9.84146e+01
       E  3.16600e+01 -5.49327e+00 -1.49259e+01
       E  8.10684e+00 -1.42695e+01  7.84174e+00
3
# CELL(abcABC): 1322.94304  1322.94304  1322.94304    90.00000    90.00000    90.00000  Step:        6800  Bead:      26 positions{angstrom}  cell{angstrom}
       E  4.61894e+01 -1.15484e+02 -9.99800e+01
       E -6.90090e+00 -1.18683e+01  5.16517e+00
       E  1.08948e-01 -6.25926e+01 -8.18954e+00
3
# CELL(abcABC): 1322.94304  1322.94304  1322.94304    90.00000    90.00000    90.00000  Step:        6900  Bead:      26 positions{angstrom}  cell{angstrom}
       E  3.40468e+01 -1.01675e+02 -2.03942e+01
       E  2.86508e+01  1.82512e+01 -6.39263e+00
       E  1.93749e+01 -4.81183e+01 -1.81221e+01
3
# CELL(abcABC): 1322.94304  1322.94304  1322.94304    90.00000    90.00000    90.00000  Step:        7000  Bead:      26 positions{angstrom}  cell{angstrom}
       E  3.90238e+01 -3.84917e+01 -1.31051e+01
       E  2.97154e+01  4.70236e+01 -1.40288e+01
       E  1.89206e+01 -2.24250e+01 -4.81362e+01
3
# CELL(abcABC): 1322.94304  1322.94304  1322.94304    90.00000    90.00000    90.00000  Step:        7100  Bead:      26 positions{angstrom}  cell{angstrom}
       E -2.08692e+00 -4.22954e+01 -1.88168e+01
       E  4.38724e+01  6.60174e+01  1.13723e+01
       E  4.23240e+01 -3.01413e+01 -2.90521e+00
3
# CELL(abcABC): 1322.94304  1322.94304  1322.94304    90.00000    90.00000    90.00000  Step:        7200  Bead:      26 positions{angstrom}  cell{angstrom}
       E -7.57360e+00 -2.11363e+01 -7.37177e+01
       E  2.46435e+01  3.51657e+01  6.76392e+00
       E  3.27971e+01  1.57358e+01 -3.09702e+01
3
# CELL(abcABC): 1322.94304  1322.94304  1322.94304    90.00000    90.00000    90.00000  Step:        7300  Bead:      26 positions{angstrom}  cell{angstrom}
       E  3.52370e+01 -1.11258e+01 -4.96825e+01
       E -3.20831e+01  2.96143e+01 -2.39220e+01
       E  2.79986e+01  2.62137e+01  1.38397e+01
3
# CELL(abcABC): 1322.94304  1322.94304  1322.94304    90.00000    90.00000    90.00000  Step:        7400  Bead:      26 positions{angstrom}  cell{angstrom}
       E -6.26013e+00 -5.11964e+01 -1.82987e+01
       E  1.20174e+01  2.20501e+01 -3.89127e+01
       E  3.20338e+01  9.26824e+00  2.07888e+01
3
# CELL(abcABC): 1322.94304  1322.94304  1322.94304    90.00000    90.00000    90.00000  Step:        7500  Bead:      26 positions{angstrom}  cell{angstrom}
       E -2.31904e+01 -4.10555e+01 -3.22920e+01
       E  1.98180e+01  1.85210e+01 -4.26485e+01
       E -1.48440e+00  2.24541e+01  1.55904e+01
3
# CELL(abcABC): 1322.94304  1322.94304  1322.94304    90.00000    90.00000    90.00000  Step:        7600  Bead:      26 positions{angstrom}  cell{angstrom}
       E -1.89391e+01 -7.16010e+01 -5.70386e+01
       E -2.65237e+01  1.04451e+00  6.31840e+00
       E  2.71733e-02 -1.11972e+01 -2.19728e+01
3
# CELL(abcABC): 1322.94304  1322.94304  1322.94304    90.00000    90.00000    90.00000  Step:        7700  Bead:      26 positions{angstrom}  cell{angstrom}
       E -8.95131e+00 -3.22932e+01 -3.08909e+01
       E  2.53288e+01  1.68833e-01 -1.55953e+01
       E  1.90505e+01 -4.84282e+01 -4.97440e+01
3
# CELL(abcABC): 1322.94304  1322.94304  1322.94304    90.00000    90.00000    90.00000  Step:        7800  Bead:      26 positions{angstrom}  cell{angstrom}
       E  5.10449e+00 -3.39707e+01 -2.19330e+01
       E  2.32759e+01  2.37459e-01 -3.27040e+01
       E  1.44903e+01 -5.28692e+01 -1.32658e+01
3
# CELL(abcABC): 1322.94304  1322.94304  1322.94304    90.00000    90.00000    90.00000  Step:        7900  Bead:      26 positions{angstrom}  cell{angstrom}
       E  6.04698e+01 -2.89286e+01 -2.22838e+01
       E  4.33861e+01 -3.30322e+01 -4.88632e+01
       E -7.39194e+00 -3.88335e+01 -5.68607e+01
3
# CELL(abcABC): 1322.94304  1322.94304  1322.94304    90.00000    90.00000    90.00000  Step:        8000  Bead:      26 positions{angstrom}  cell{angstrom}
       E  4.35353e+01 -1.04775e+01 -4.15507e+01
       E  1.38266e+01  1.37783e+01 -5.96912e+01
       E  3.79403e+00 -8.50838e-01  5.32305e+00
3
# CELL(abcABC): 1322.94304  1322.94304  1322.94304    90.00000    90.00000    90.00000  Step:        8100  Bead:      26 positions{angstrom}  cell{angstrom}
       E  4.01645e+01  4.13349e+01 -5.14342e+01
       E -3.56556e+01  2.71802e+01 -5.11282e+01
       E -1.26621e+01 -2.47034e+01  2.39638e+01
3
# CELL(abcABC): 1322.94304  1322.94304  1322.94304    90.00000    90.00000    90.00000  Step:        8200  Bead:      26 positions{angstrom}  cell{angstrom}
       E  1.47490e+01  6.17750e+01  1.34991e+00
       E  1.54728e+01  2.89795e+01 -7.37214e+00
       E -3.66302e+01 -5.52831e+01  1.78846e+01
3
# CELL(abcABC): 1322.94304  1322.94304  1322.94304    90.00000    90.00000    90.00000  Step:        8300  Bead:      26 positions{angstrom}  cell{angstrom}
       E  1.50631e+01  7.07345e+01  1.05768e+01
       E  2.15661e+01  7.18338e+00 -9.91291e+00
       E  7.82117e+00 -5.29186e+01  2.94053e+01
3
# CELL(abcABC): 1322.94304  1322.94304  1322.94304    90.00000    90.00000    90.00000  Step:        8400  Bead:      26 positions{angstrom}  cell{angstrom}
       E -9.33320e+00 -1.66783e+01 -6.11422e+00
       E  1.17681e+01  3.86923e+01  4.48248e+01
       E -2.23894e+01 -5.26201e+01  6.98942e+01
3
# CELL(abcABC): 1322.94304  1322.94304  1322.94304    90.00000    90.00000    90.00000  Step:        8500  Bead:      26 positions{angstrom}  cell{angstrom}
       E -6.54966e+00 -1.80912e+01 -4.10345e+01
       E  3.98847e+00  1.57073e+00 -1.09795e+01
       E -2.31563e+00 -2.44443e+01  5.39909e+01
3
# CELL(abcABC): 1322.94304  1322.94304  1322.94304    90.00000    90.00000    90.00000  Step:        8600  Bead:      26 positions{angstrom}  cell{angstrom}
       E  5.32031e-01 -1.10535e+01 -2.34949e+01
       E  2.79007e+01 -1.04153e+01  4.39666e+01
       E  4.42107e+01 -3.79673e+00  6.09504e+01
3
# CELL(abcABC): 1322.94304  1322.94304  1322.94304    90.00000    90.00000    90.00000  Step:        8700  Bead:      26 positions{angstrom}  cell{angstrom}
       E  3.46503e-01 -1.58832e+00 -2.88774e+01
       E  1.16761e+01  1.12825e+01  4.20426e+01
       E  5.62216e+01 -1.97132e+01  1.51696e+01
3
# CELL(abcABC): 1322.94304  1322.94304  1322.94304    90.00000    90.00000    90.00000  Step:        8800  Bead:      26 positions{angstrom}  cell{angstrom}
       E -4.24060e+01  9.44367e+00 -6.53744e-01
       E -3.90060e+00 -2.18075e+01  2.93996e+01
       E  4.38382e+01 -3.23194e+01  2.20952e+01
3
# CELL(abcABC): 1322.94304  1322.94304  1322.94304    90.00000    90.00000    90.00000  Step:        8900  Bead:      26 positions{angstrom}  cell{angstrom}
       E -3.65691e+01  2.80157e+01  1.96365e+00
       E  1.84441e+01 -3.13685e+01  1.58669e+01
       E  2.84194e+01 -6.15550e+01  1.24778e+01
3
# CELL(abcABC): 1322.94304  1322.94304  1322.94304    90.00000    90.00000    90.00000  Step:        9000  Bead:      26 positions{angstrom}  cell{angstrom}
       E -2.94980e+01  3.91306e+01  1.84707e+01
       E  1.74962e+01 -3.27881e+01  6.17110e+01
       E -3.62546e+00 -9.65702e+01  1.40925e+00
3
# CELL(abcABC): 1322.94304  1322.94304  1322.94304    90.00000    90.00000    90.00000  Step:        9100  Bead:      26 positions{angstrom}  cell{angstrom}
       E -3.50380e+01  2.44429e+01 -6.91210e+00
       E -5.12147e+00  1.97196e+00  4.65177e+01
       E  3.89362e+01 -6.77621e+01 -9.13444e-03
3
# CELL(abcABC): 1322.94304  1322.94304  1322.94304    90.00000    90.00000    90.00000  Step:        9200  Bead:      26 positions{angstrom}  cell{angstrom}
       E  2.04069e+01  3.74078e+01 -3.51061e+01
       E  1.46228e+01 -2.53460e+00 -3.34156e+00
       E  3.64282e+01 -4.31812e+01  2.25184e+00
3
# CELL(abcABC): 1322.94304  1322.94304  1322.94304    90.00000    90.00000    90.00000  Step:        9300  Bead:      26 positions{angstrom}  cell{angstrom}
       E  3.85401e+01 -2.34011e+01 -8.69429e+01
       E -2.27085e+01 -3.40361e+01  3.22212e+01
       E  2.72076e+01 -1.12805e+01  1.17701e+01
3
# CELL(abcABC): 1322.94304  1322.94304  1322.94304    90.00000    90.00000    90.00000  Step:        9400  Bead:      26 positions{angstrom}  cell{angstrom}
       E  6.34483e+01  8.01265e+00 -7.27790e+01
       E -2.39630e-01 -2.20005e+01  3.01565e+01
       E  2.21819e+01 -1.17032e+01 -1.69064e+01
3
# CELL(abcABC): 1322.94304  1322.94304  1322.94304    90.00000    90.00000    90.00000  Step:        9500  Bead:      26 positions{angstrom}  cell{angstrom}
       E  3.54679e+01  3.74126e+01 -4.52741e+01
       E  2.04079e+01 -1.83756e+01  4.71540e+01
       E  2.90395e+01 -3.24216e+00  4.08497e+00
3
# CELL(abcABC): 1322.94304  1322.94304  1322.94304    90.00000    90.00000    90.00000  Step:        9600  Bead:      26 positions{angstrom}  cell{angstrom}
       E  3.75276e+01 -2.62824e+01 -5.14674e+01
       E  3.45979e+01 -4.10931e+01 -6.94660e+00
       E  6.79291e+00 -8.16925e+00 -1.42288e+01
3
# CELL(abcABC): 1322.94304  1322.94304  1322.94304    90.00000    90.00000    90.00000  Step:        9700  Bead:      26 positions{angstrom}  cell{angstrom}
       E -1.99708e+01 -4.78330e+01 -7.36416e+01
       E  4.42970e+01 -1.06639e+02  5.40995e+00
       E -3.13680e+01 -6.83458e+00 -2.25758e+00
3
# CELL(abcABC): 1322.94304  1322.94304  1322.94304    90.00000    90.00000    90.00000  Step:        9800  Bead:      26 positions{angstrom}  cell{angstrom}
       E -4.08891e+01 -5.60876e+01 -2.63394e+01
       E  4.32277e+01 -5.48651e+01 -5.15513e+00
       E -2.18671e+01 -1.57651e+01  7.63474e+00
3