3
# CELL(abcABC): 1322.94304  1322.94304  1322.94304    90.00000    90.00000    90.00000  Step:           0  Bead:       1 positions{angstrom}  cell{angstrom}
       E  0.00000e+00  0.00000e+00  0.00000e+00
       E  0.00000e+00  0.00000e+00  0.00000e+00
       E  0.00000e+00  0.00000e+00  0.00000e+00
3
# CELL(abcABC): 1322.94304  1322.94304  1322.94304    90.00000    90.00000    90.00000  Step:         100  Bead:       1 positions{angstrom}  cell{angstrom}
       E -3.08550e+01 -3.94495e+01  1.88134e+00
       E -1.30934e+01 -2.46689e+01  1.20885e+00
       E  1.87300e+01  8.07113e-01  1.90192e+01
3
# CELL(abcABC): 1322.94304  1322.94304  1322.94304    90.00000    90.00000    90.00000  Step:         200  Bead:       1 positions{angstrom}  cell{angstrom}
       E -1.89515e+01 -1.90207e+01  1.80725e+01
       E  1.26541e+01 -3.04515e+00  1.11080e+01
       E -3.55359e+00  3.82642e+01  3.26442e+01
3
# CELL(abcABC): 1322.94304  1322.94304  1322.94304    90.00000    90.00000    90.00000  Step:         300  Bead:       1 positions{angstrom}  cell{angstrom}
       E  3.76989e+01  1.40876e+01 -5.64817e+01
       E  2.00936e+01 -7.72753e-02  1.05403e+01
       E -1.82114e+00  1.79817e+01  1.23118e+01
3
# CELL(abcABC): 1322.94304  1322.94304  1322.94304    90.00000    90.00000    90.00000  Step:         400  Bead:       1 positions{angstrom}  cell{angstrom}
       E  3.67621e+01  2.17854e+01 -1.36675e+01
       E  2.48068e+01 -2.85640e+00  1.82617e+01
       E -1.98218e+01  2.84240e+01  1.86426e+01
3
# CELL(abcABC): 1322.94304  1322.94304  1322.94304    90.00000    90.00000    90.00000  Step:         500  Bead:       1 positions{angstrom}  cell{angstrom}
       E  4.53493e+01  1.56002e+00 -1.49058e+01
       E  2.60409e+01  3.57096e+01  2.73911e+01
       E -3.07555e+01  2.09067e+01  1.99478e+01
3
# CELL(abcABC): 1322.94304  1322.94304  1322.94304    90.00000    90.00000    90.00000  Step:         600  Bead:       1 positions{angstrom}  cell{angstrom}
       E  2.92032e+00  1.69402e+01 -2.03991e+01
       E -1.07756e+01  2.17186e+00  2.10533e+01
       E -4.28177e+01 -1.42841e+00  3.97430e+01
3
# CELL(abcABC): 1322.94304  1322.94304  1322.94304    90.00000    90.00000    90.00000  Step:         700  Bead:       1 positions{angstrom}  cell{angstrom}
       E  1.04110e+01  1.29020e+00  7.50054e+00
       E -3.68528e+00 -1.88080e+01  1.70273e+01
       E -4.50377e+01  8.40525e+00  3.39506e+01
3
# CELL(abcABC): 1322.94304  1322.94304  1322.94304    90.00000    90.00000    90.00000  Step:         800  Bead:       1 positions{angstrom}  cell{angstrom}
       E  2.61217e+01  1.77854e+01  3.50877e+01
       E  9.26790e+00  9.88569e+00 -3.43540e+00
       E -3.82482e+01  4.18591e+01  4.38316e+01
3
# CELL(abcABC): 1322.94304  1322.94304  1322.94304    90.00000    90.00000    90.00000  Step:         900  Bead:       1 positions{angstrom}  cell{angstrom}
       E -4.98723e+00  7.64893e+00  2.26564e+01
       E  2.81108e+01  3.90340e+00  5.14818e+00
       E -5.27844e+00  3.21154e+01  6.09787e+01
3
# CELL(abcABC): 1322.94304  1322.94304  1322.94304    90.00000    90.00000    90.00000  Step:        1000  Bead:       1 positions{angstrom}  cell{angstrom}
       E -1.22505e+01 -3.83809e+01  2.00702e+01
       E  6.41811e+00  5.46642e-01 -2.04948e+01
       E -1.36598e+01  3.97139e+01  2.54208e+01
3
# CELL(abcABC): 1322.94304  1322.94304  1322.94304    90.00000    90.00000    90.00000  Step:        1100  Bead:       1 positions{angstrom}  cell{angstrom}
       E  8.70114e+00  7.45443e+00 -1.98619e+01
       E  3.46395e+01 -5.84357e+00 -2.47306e+01
       E -2.70635e+01  6.05255e+01  5.19814e+01
3
# CELL(abcABC): 1322.94304  1322.94304  1322.94304    90.00000    90.00000    90.00000  Step:        1200  Bead:       1 positions{angstrom}  cell{angstrom}
       E  6.24583e+00  7.71295e+00 -4.55710e+01
       E  5.30350e+01  1.84874e+00 -5.52200e+01
       E -2.26112e+01  5.22510e+01  2.35599e+01
3
# CELL(abcABC): 1322.94304  1322.94304  1322.94304    90.00000    90.00000    90.00000  Step:        1300  Bead:       1 positions{angstrom}  cell{angstrom}
       E -9.72064e-01  1.40634e+01 -5.61924e+01
       E  3.56170e+01 -5.82046e+01 -3.91976e+01
       E -3.31444e+01  3.41772e+01  2.15650e+01
3
# CELL(abcABC): 1322.94304  1322.94304  1322.94304    90.00000    90.00000    90.00000  Step:        1400  Bead:       1 positions{angstrom}  cell{angstrom}
       E -3.24782e+01 -1.05564e+01 -4.96255e+01
       E -2.50830e-01  7.18680e+00 -1.51150e+01
       E -5.11222e+01  3.69919e+01  5.65679e+00
3
# CELL(abcABC): 1322.94304  1322.94304  1322.94304    90.00000    90.00000    90.00000  Step:        1500  Bead:       1 positions{angstrom}  cell{angstrom}
       E -5.26729e+01  2.96504e+01 -7.74832e+01
       E -2.09552e+00 -1.91678e+01  1.33384e+01
       E -4.02924e+01  1.84530e+01 -1.08110e+01
3
# CELL(abcABC): 1322.94304  1322.94304  1322.94304    90.00000    90.00000    90.00000  Step:        1600  Bead:       1 positions{angstrom}  cell{angstrom}
       E -5.39071e+01  3.93033e+01 -4.76498e+01
       E  1.36487e+01 -1.74033e+00  1.41075e+01
       E -3.85166e+01  3.57070e+01  4.56090e+00
3
# CELL(abcABC): 1322.94304  1322.94304  1322.94304    90.00000    90.00000    90.00000  Step:        1700  Bead:       1 positions{angstrom}  cell{angstrom}
       E -3.95792e+01  1.69263e+01 -2.16108e+01
       E -3.45459e+00 -7.28871e+00  3.58901e+01
       E -3.77892e+01  7.62984e+01 -2.46305e+01
3
# CELL(abcABC): 1322.94304  1322.94304  1322.94304    90.00000    90.00000    90.00000  Step:        1800  Bead:       1 positions{angstrom}  cell{angstrom}
       E -3.20833e+01  1.41221e+01  1.44751e+01
       E -4.29657e+01 -4.06774e+01  4.67797e+01
       E -5.29775e+01  5.61273e+01 -7.86744e+00
3
# CELL(abcABC): 1322.94304  1322.94304  1322.94304    90.00000    90.00000    90.00000  Step:        1900  Bead:       1 positions{angstrom}  cell{angstrom}
       E -3.79696e+01  2.95965e+01  1.26083e+01
       E -3.04739e+01 -2.33068e+01 -1.21141e+01
       E -8.48320e+01  5.31298e+01  3.87680e+00
3
# CELL(abcABC): 1322.94304  1322.94304  1322.94304    90.00000    90.00000    90.00000  Step:        2000  Bead:       1 positions{angstrom}  cell{angstrom}
       E -4.33287e+01 -5.31736e+00  3.77665e+01
       E  9.95891e+00 -2.04952e+01  3.52869e+01
       E -4.89448e+01  3.84100e+01 -1.84586e+00
3
# CELL(abcABC): 1322.94304  1322.94304  1322.94304    90.00000    90.00000    90.00000  Step:        2100  Bead:       1 positions{angstrom}  cell{angstrom}
       E -5.19381e+00 -5.53115e+01  2.91439e+01
       E -4.54684e+01 -8.15529e+00 -2.69590e+00
       E -7.17311e+01  6.01671e+01 -3.67147e+00
3
# CELL(abcABC): 1322.94304  1322.94304  1322.94304    90.00000    90.00000    90.00000  Step:        2200  Bead:       1 positions{angstrom}  cell{angstrom}
       E  2.25680e+01 -7.80733e+01  4.71200e+00
       E -6.17487e+01 -1.19106e+01 -2.45989e+00
       E -9.11816e+01  2.65192e+01  3.13418e+01
3
# CELL(abcABC): 1322.94304  1322.94304  1322.94304    90.00000    90.00000    90.00000  Step:        2300  Bead:       1 positions{angstrom}  cell{angstrom}
       E  1.21100e+01 -7.62201e+01 -1.73488e+01
       E  1.32409e+00  3.87827e+00  1.44076e+01
       E -5.88641e+01  5.77443e+01  1.57705e+01
3
# CELL(abcABC): 1322.94304  1322.94304  1322.94304    90.00000    90.00000    90.00000  Step:        2400  Bead:       1 positions{angstrom}  cell{angstrom}
       E  1.08591e+01 -6.11552e+01  4.40631e+01
       E  9.82593e+00 -3.89396e+01 -2.50104e+01
       E -1.49122e+01  5.18897e+01  3.00331e+01
3
# CELL(abcABC): 1322.94304  1322.94304  1322.94304    90.00000    90.00000    90.00000  Step:        2500  Bead:       1 positions{angstrom}  cell{angstrom}
       E -1.89028e+01 -1.54600e+01  5.04725e+01
       E  2.15778e+01 -3.26632e+01 -1.51965e+01
       E -5.21926e+01 -1.14313e+01  5.96947e+01
3
# CELL(abcABC): 1322.94304  1322.94304  1322.94304    90.00000    90.00000    90.00000  Step:        2600  Bead:       1 positions{angstrom}  cell{angstrom}
       E -5.17098e+00  3.77623e+00  9.67947e+01
       E  2.83670e+01 -4.48164e+01 -1.39255e+01
       E -3.58911e+01 -5.00918e+01  5.10356e+01
3
# CELL(abcABC): 1322.94304  1322.94304  1322.94304    90.00000    90.00000    90.00000  Step:        2700  Bead:       1 positions{angstrom}  cell{angstrom}
       E -2.40767e+01 -3.35506e+01  9.57756e+01
       E  9.67538e+00 -2.81124e+01  7.46127e+00
       E -4.12571e+01 -2.12169e+01  2.56653e+01
3
# CELL(abcABC): 1322.94304  1322.94304  1322.94304    90.00000    90.00000    90.00000  Step:        2800  Bead:       1 positions{angstrom}  cell{angstrom}
       E -2.90498e+01 -6.32538e+01  6.07573e+01
       E  1.68144e+01 -2.81802e+01  5.88790e+00
       E -3.66901e+01  5.22926e+00  2.76271e+01
3
# CELL(abcABC): 1322.94304  1322.94304  1322.94304    90.00000    90.00000    90.00000  Step:        2900  Bead:       1 positions{angstrom}  cell{angstrom}
       E -6.34770e+01 -8.97018e+01  6.12623e+01
       E  2.85880e+01 -4.58481e+01  1.80920e+01
       E -3.69108e+01 -6.08174e+00  6.14725e+01
3
# CELL(abcABC): 1322.94304  1322.94304  1322.94304    90.00000    90.00000    90.00000  Step:        3000  Bead:       1 positions{angstrom}  cell{angstrom}
       E -8.70360e+01 -2.33965e+00  7.48149e+00
       E  4.16537e+01 -5.10342e+01  2.08797e+01
       E -8.88115e+00 -2.89245e+00  4.15991e+01
3
# CELL(abcABC): 1322.94304  1322.94304  1322.94304    90.00000    90.00000    90.00000  Step:        3100  Bead:       1 positions{angstrom}  cell{angstrom}
       E -9.62237e+01 -1.71278e+01  4.22060e+01
       E  5.69470e+01 -8.15134e+01  2.32730e+01
       E -2.45604e+01  1.04876e+01  2.36112e+01
3
# CELL(abcABC): 1322.94304  1322.94304  1322.94304    90.00000    90.00000    90.00000  Step:        3200  Bead:       1 positions{angstrom}  cell{angstrom}
       E -9.07317e+01 -3.71836e+01  2.82887e+01
       E  2.96344e+01 -7.41614e+01  3.71019e+01
       E  1.41060e+00  1.33477e+01  7.73848e+01
3
# CELL(abcABC): 1322.94304  1322.94304  1322.94304    90.00000    90.00000    90.00000  Step:        3300  Bead:       1 positions{angstrom}  cell{angstrom}
       E -9.08243e+01 -2.40096e+00  6.35888e+01
       E  1.45178e+01 -3.36411e+01  3.09344e+01
       E -5.71387e+01  5.90652e+01  8.95896e+01
3
# CELL(abcABC): 1322.94304  1322.94304  1322.94304    90.00000    90.00000    90.00000  Step:        3400  Bead:       1 positions{angstrom}  cell{angstrom}
       E -9.40487e+01 -1.35213e+01  6.27499e+01
       E  2.62905e+00 -3.14576e+01  2.66537e+01
       E -2.97081e+01  3.50941e+01  8.40088e+01
3
# CELL(abcABC): 1322.94304  1322.94304  1322.94304    90.00000    90.00000    90.00000  Step:        3500  Bead:       1 positions{angstrom}  cell{angstrom}
       E -8.70821e+01 -2.27784e+01  3.17452e+01
       E -2.60921e+00 -3.40869e+01  2.43469e+01
       E -6.68727e+01  4.23779e+01  4.69316e+01
3
# CELL(abcABC): 1322.94304  1322.94304  1322.94304    90.00000    90.00000    90.00000  Step:        3600  Bead:       1 positions{angstrom}  cell{angstrom}
       E -9.93519e+01 -6.06314e+01  1.31905e+01
       E -6.25745e+00 -4.28937e+01  1.43492e+01
       E -8.30503e+01 -6.01756e+00  2.61286e+01
3
# CELL(abcABC): 1322.94304  1322.94304  1322.94304    90.00000    90.00000    90.00000  Step:        3700  Bead:       1 positions{angstrom}  cell{angstrom}
       E -5.11910e+01 -4.69586e+01 -2.30502e+01
       E -2.23241e+01 -3.11234e+01  1.84588e+00
       E -3.13887e+01  1.72072e+01  2.16901e+01
3
# CELL(abcABC): 1322.94304  1322.94304  1322.94304    90.00000    90.00000    90.00000  Step:        3800  Bead:       1 positions{angstrom}  cell{angstrom}
       E -3.10798e+01 -5.08709e+01  1.04340e+01
       E -4.93330e+01 -2.01412e+01 -3.30378e+01
       E -2.25637e+01 -5.51342e+00  1.35581e+01
3
# CELL(abcABC): 1322.94304  1322.94304  1322.94304    90.00000    90.00000    90.00000  Step:        3900  Bead:       1 positions{angstrom}  cell{angstrom}
       E -2.43228e+01 -4.79510e+01 -1.54544e+01
       E -6.13967e+01 -2.65431e+01 -1.92890e+01
       E -3.05875e+01  9.04604e+00  2.33952e+01
3
# CELL(abcABC): 1322.94304  1322.94304  1322.94304    90.00000    90.00000    90.00000  Step:        4000  Bead:       1 positions{angstrom}  cell{angstrom}
       E -3.93466e+01 -9.64619e+00  1.24837e+01
       E -7.94370e+01 -2.11419e+01 -3.11362e+01
       E -3.53012e+01  6.44587e+00  6.86426e+00
3
# CELL(abcABC): 1322.94304  1322.94304  1322.94304    90.00000    90.00000    90.00000  Step:        4100  Bead:       1 positions{angstrom}  cell{angstrom}
       E -5.00225e+01  3.19599e+01 -3.36803e+01
       E -5.61488e+01  2.03588e+01 -4.70204e+01
       E -4.72830e+01  5.28198e+01  2.72233e+01
3
# CELL(abcABC): 1322.94304  1322.94304  1322.94304    90.00000    90.00000    90.00000  Step:        4200  Bead:       1 positions{angstrom}  cell{angstrom}
       E -3.01886e+01 -2.04392e+01 -1.07112e+01
       E -5.42271e+01  3.07908e+01 -3.51998e+01
       E -5.31147e+01  1.02496e+01  3.60120e+01
3
# CELL(abcABC): 1322.94304  1322.94304  1322.94304    90.00000    90.00000    90.00000  Step:        4300  Bead:       1 positions{angstrom}  cell{angstrom}
       E -2.70291e+01  1.41524e+01 -1.07190e+01
       E -8.86016e+01  2.00323e+01 -6.69543e+01
       E -4.98554e+01 -1.27904e+01  1.89419e+01
3
# CELL(abcABC): 1322.94304  1322.94304  1322.94304    90.00000    90.00000    90.00000  Step:        4400  Bead:       1 positions{angstrom}  cell{angstrom}
       E -1.90544e+01  4.34347e+01  1.81812e+01
       E -7.72083e+01  6.26228e+01 -1.72328e+01
       E -4.83917e+01 -1.51642e+01  2.25723e+01
3
# CELL(abcABC): 1322.94304  1322.94304  1322.94304    90.00000    90.00000    90.00000  Step:        4500  Bead:       1 positions{angstrom}  cell{angstrom}
       E -3.69868e+01  3.73310e+01  3.23306e+01
       E -7.02819e+01  6.64649e+01 -2.20991e+01
       E -4.48358e+01 -8.87210e+00 -2.23832e+00
3
# CELL(abcABC): 1322.94304  1322.94304  1322.94304    90.00000    90.00000    90.00000  Step:        4600  Bead:       1 positions{angstrom}  cell{angstrom}
       E -7.93462e+00  4.48497e+01  4.18268e+01
       E -7.33706e+01  2.52338e+01 -1.44681e+01
       E -4.01126e+01 -7.73986e+00  2.10963e+01
3
# CELL(abcABC): 1322.94304  1322.94304  1322.94304    90.00000    90.00000    90.00000  Step:        4700  Bead:       1 positions{angstrom}  cell{angstrom}
       E  4.90856e+00  2.50142e+01  1.61550e+01
       E -5.32166e+01  1.89800e+01 -5.85817e+01
       E -4.96577e+01  5.11975e+00  9.18097e+00
3
# CELL(abcABC): 1322.94304  1322.94304  1322.94304    90.00000    90.00000    90.00000  Step:        4800  Bead:       1 positions{angstrom}  cell{angstrom}
       E  2.48839e+01  1.22063e+01  6.69706e+00
       E -5.06260e+01 -9.00052e+00 -7.22087e+01
       E -7.00262e+00 -1.00610e+01 -1.23703e+01
3
# CELL(abcABC): 1322.94304  1322.94304  1322.94304    90.00000    90.00000    90.00000  Step:        4900  Bead:       1 positions{angstrom}  cell{angstrom}
       E  4.76412e+01 -1.85944e+01 -2.86587e+01
       E -6.85570e+01  2.50904e+01 -3.17111e+01
       E  1.94555e+01  3.61925e+00 -6.62200e+01
3
# CELL(abcABC): 1322.94304  1322.94304  1322.94304    90.00000    90.00000    90.00000  Step:        5000  Bead:       1 positions{angstrom}  cell{angstrom}
       E  3.71489e+01 -1.00850e+01  2.66715e+01
       E -4.10801e+01  6.75264e+00 -6.86313e+01
       E  7.52681e+00 -9.48419e+00 -5.14270e+01
3
# CELL(abcABC): 1322.94304  1322.94304  1322.94304    90.00000    90.00000    90.00000  Step:        5100  Bead:       1 positions{angstrom}  cell{angstrom}
       E  4.10864e+01  1.14876e+01  5.09085e+01
       E -3.44739e+01  2.96482e+01 -2.51991e+01
       E  3.46818e+01 -1.45364e+01 -2.81194e+01
3
# CELL(abcABC): 1322.94304  1322.94304  1322.94304    90.00000    90.00000    90.00000  Step:        5200  Bead:       1 positions{angstrom}  cell{angstrom}
       E  7.61011e+00  3.90443e-01  1.57489e+01
       E -1.94205e+01  4.30529e+01 -4.33177e+01
       E  1.87040e+01  7.51364e+00 -1.69722e+01
3
# CELL(abcABC): 1322.94304  1322.94304  1322.94304    90.00000    90.00000    90.00000  Step:        5300  Bead:       1 positions{angstrom}  cell{angstrom}
       E  5.61706e+00  2.05609e+01  3.39092e+01
       E -3.57856e+01  3.75133e+01 -3.57493e+01
       E -7.22243e+00  2.28475e+01 -7.70689e+00
3
# CELL(abcABC): 1322.94304  1322.94304  1322.94304    90.00000    90.00000    90.00000  Step:        5400  Bead:       1 positions{angstrom}  cell{angstrom}
       E -8.98653e+00  1.41676e+01  5.97977e+01
       E -2.80272e+01  2.11364e+00 -4.82070e+01
       E -7.79528e+00  9.51321e+00 -2.49437e+01
3
# CELL(abcABC): 1322.94304  1322.94304  1322.94304    90.00000    90.00000    90.00000  Step:        5500  Bead:       1 positions{angstrom}  cell{angstrom}
       E  2.15354e+01 -2.65606e+00  3.12806e+01
       E -3.10077e+01  3.27163e+01 -6.86027e+00
       E -2.22662e+01  3.61023e+01 -4.25089e+00
3
# CELL(abcABC): 1322.94304  1322.94304  1322.94304    90.00000    90.00000    90.00000  Step:        5600  Bead:       1 positions{angstrom}  cell{angstrom}
       E  8.08777e+00 -2.51511e+00  2.42261e+01
       E -1.25997e+01  1.52353e+01 -1.78443e+01
       E -6.79939e+00  4.91402e+01 -8.32199e+00
3
# CELL(abcABC): 1322.94304  1322.94304  1322.94304    90.00000    90.00000    90.00000  Step:        5700  Bead:       1 positions{angstrom}  cell{angstrom}
       E -2.21987e+01 -1.37672e+01  2.13215e+01
       E -5.21825e+01  2.23005e+01 -9.55753e+00
       E -3.42331e+01  1.28042e+01  1.66787e+01
3
# CELL(abcABC): 1322.94304  1322.94304  1322.94304    90.00000    90.00000    90.00000  Step:        5800  Bead:       1 positions{angstrom}  cell{angstrom}
       E -2.31558e+01 -2.79400e+01  2.01604e+00
       E -3.59482e+01  2.89557e+01  1.02589e+01
       E -3.50079e+00  3.05246e+01  3.75178e+00
3
# CELL(abcABC): 1322.94304  1322.94304  1322.94304    90.00000    90.00000    90.00000  Step:        5900  Bead:       1 positions{angstrom}  cell{angstrom}
       E -4.86707e-01 -4.29240e+01 -3.92620e+00
       E -4.31829e+01  1.39810e+01 -7.57465e+00
       E  1.61911e+01  2.56716e+01 -2.59992e+01
3
# CELL(abcABC): 1322.94304  1322.94304  1322.94304    90.00000    90.00000    90.00000  Step:        6000  Bead:       1 positions{angstrom}  cell{angstrom}
       E  1.52692e+01 -6.36399e+01 -2.54729e+01
       E -3.04313e+01 -6.21531e+00 -1.30723e+01
       E  3.95357e+01  9.82860e+00 -6.44213e+01
3
# CELL(abcABC): 1322.94304  1322.94304  1322.94304    90.00000    90.00000    90.00000  Step:        6100  Bead:       1 positions{angstrom}  cell{angstrom}
       E  3.61897e+01 -5.06687e+01 -2.45645e+01
       E -1.13477e+01 -4.19386e+01 -3.81594e+00
       E  2.11773e+01  6.60372e+00 -4.41737e+01
3
# CELL(abcABC): 1322.94304  1322.94304  1322.94304    90.00000    90.00000    90.00000  Step:        6200  Bead:       1 positions{angstrom}  cell{angstrom}
       E  3.06432e+01 -4.11929e+01 -5.16487e+01
       E  1.19149e+01 -4.11238e+01 -4.86853e+00
       E  4.83232e+01  4.21226e+00 -6.35724e+01
3
# CELL(abcABC): 1322.94304  1322.94304  1322.94304    90.00000    90.00000    90.00000  Step:        6300  Bead:       1 positions{angstrom}  cell{angstrom}
       E  1.09466e+01 -7.32219e+01 -6.51535e+01
       E  5.86496e+01 -6.23298e+01  1.27473e+00
       E  4.15211e+01  4.79767e+00 -4.95893e+01
3
# CELL(abcABC): 1322.94304  1322.94304  1322.94304    90.00000    90.00000    90.00000  Step:        6400  Bead:       1 positions{angstrom}  cell{angstrom}
       E  9.29377e+00 -8.65182e+01 -7.64898e+01
       E  5.39592e+01 -5.96234e+01  1.45633e+01
       E  3.77354e+01  7.65645e-01 -1.74252e+01
3
# CELL(abcABC): 1322.94304  1322.94304  1322.94304    90.00000    90.00000    90.00000  Step:        6500  Bead:       1 positions{angstrom}  cell{angstrom}
       E -1.18333e+01 -1.05136e+02 -8.57765e+01
       E  2.71096e+01 -7.83405e+00 -2.04361e+01
       E -5.00026e+00 -9.68415e+00 -6.41438e+01
3
# CELL(abcABC): 1322.94304  1322.94304  1322.94304    90.00000    90.00000    90.00000  Step:        6600  Bead:       1 positions{angstrom}  cell{angstrom}
       E -6.10199e+00 -8.82320e+01 -1.04493e+02
       E  3.05636e+01 -3.40642e+01 -2.56010e+00
       E -2.69742e+01 -8.08194e+00 -2.54342e+00
3
# CELL(abcABC): 1322.94304  1322.94304  1322.94304    90.00000    90.00000    90.00000  Step:        6700  Bead:       1 positions{angstrom}  cell{angstrom}
       E  1.82732e+01 -7.17848e+01 -1.02657e+02
       E  2.41148e+01 -5.42506e+01 -1.82355e+00
       E  9.79656e+00  4.06826e+01  3.80298e+00
3
# CELL(abcABC): 1322.94304  1322.94304  1322.94304    90.00000    90.00000    90.00000  Step:        6800  Bead:       1 positions{angstrom}  cell{angstrom}
       E -2.29550e+01 -7.93706e+01 -8.61585e+01
       E  1.90820e+01 -3.31610e+01  2.39515e+01
       E  3.67145e+01  2.51100e+01  1.80562e+01
3
# CELL(abcABC): 1322.94304  1322.94304  1322.94304    90.00000    90.00000    90.00000  Step:        6900  Bead:       1 positions{angstrom}  cell{angstrom}
       E -1.91801e+01 -7.86929e+01 -6.40297e+01
       E -1.05554e+01 -3.96594e+01  1.72374e+01
       E  1.72367e+01  2.47045e+01  2.09558e+01
3
# CELL(abcABC): 1322.94304  1322.94304  1322.94304    90.00000    90.00000    90.00000  Step:        7000  Bead:       1 positions{angstrom}  cell{angstrom}
       E -1.63739e+01 -3.19023e+01 -3.74014e+01
       E -1.78401e+01 -3.51585e+01 -1.02081e+01
       E -1.68816e+00  6.70173e+01  6.46678e+00
3
# CELL(abcABC): 1322.94304  1322.94304  1322.94304    90.00000    90.00000    90.00000  Step:        7100  Bead:       1 positions{angstrom}  cell{angstrom}
       E -2.62516e+01 -2.09653e+01 -2.87608e+01
       E -3.11774e+00  1.33422e+01  2.68958e+01
       E  1.24668e+01  6.64113e+01 -8.58003e+00
3
# CELL(abcABC): 1322.94304  1322.94304  1322.94304    90.00000    90.00000    90.00000  Step:        7200  Bead:       1 positions{angstrom}  cell{angstrom}
       E -4.38541e+01 -1.81831e+01 -5.78115e+01
       E -2.14211e+01  1.40238e+00  3.32379e+01
       E  9.92630e+00  8.35441e+01  6.09631e+00
3
# CELL(abcABC): 1322.94304  1322.94304  1322.94304    90.00000    90.00000    90.00000  Step:        7300  Bead:       1 positions{angstrom}  cell{angstrom}
       E -4.01974e+00 -2.54382e+01 -4.62268e+01
       E  1.53547e+01  1.85482e+01  1.75811e+01
       E -1.16179e+01  7.10165e+01 -1.39526e+01
3
# CELL(abcABC): 1322.94304  1322.94304  1322.94304    90.00000    90.00000    90.00000  Step:        7400  Bead:       1 positions{angstrom}  cell{angstrom}
       E  2.65484e+01 -7.42944e+00 -5.96078e+00
       E  1.68519e+01 -3.39974e+00  2.06973e+01
       E  8.92626e+00  6.96392e+01 -2.25805e+01
3
# CELL(abcABC): 1322.94304  1322.94304  1322.94304    90.00000    90.00000    90.00000  Step:        7500  Bead:       1 positions{angstrom}  cell{angstrom}
       E  6.64109e-01 -2.85963e+01 -2.94595e+01
       E -2.45143e+01 -2.15709e+01 -2.47506e+01
       E  4.18530e+01  6.22286e+01  3.40293e+00
3
# CELL(abcABC): 1322.94304  1322.94304  1322.94304    90.00000    90.00000    90.00000  Step:        7600  Bead:       1 positions{angstrom}  cell{angstrom}
       E  1.35420e+00 -3.01816e+01 -2.71182e+01
       E -3.59019e+00 -4.26187e+01 -1.69434e+01
       E  3.07944e+01  2.66325e+01 -1.15240e+01
3
# CELL(abcABC): 1322.94304  1322.94304  1322.94304    90.00000    90.00000    90.00000  Step:        7700  Bead:       1 positions{angstrom}  cell{angstrom}
       E -1.14829e+01 -5.04447e+01 -3.68755e+01
       E  1.62431e+01 -3.55209e+01  7.83935e-01
       E  2.41722e+01 -3.49825e+01  6.51475e+00
3
# CELL(abcABC): 1322.94304  1322.94304  1322.94304    90.00000    90.00000    90.00000  Step:        7800  Bead:       1 positions{angstrom}  cell{angstrom}
       E  3.21113e+01 -2.97181e+01 -4.65094e+01
       E  2.60889e+01 -4.69133e+01 -6.01721e+01
       E  2.74325e+01 -2.91515e+01 -5.12644e+01
3
# CELL(abcABC): 1322.94304  1322.94304  1322.94304    90.00000    90.00000    90.00000  Step:        7900  Bead:       1 positions{angstrom}  cell{angstrom}
       E  2.62573e+01 -6.95173e+00 -2.13034e+01
       E  5.78438e+01 -1.29793e+01 -4.94697e+01
       E  4.25851e+01  1.22739e+01 -3.80642e+01
3
# CELL(abcABC): 1322.94304  1322.94304  1322.94304    90.00000    90.00000    90.00000  Step:        8000  Bead:       1 positions{angstrom}  cell{angstrom}
       E  4.64553e+01  1.61734e+01 -3.96350e+01
       E  4.29062e+01 -1.27392e+01 -5.61897e+01
       E  1.12045e+01  9.11256e-01 -1.77737e+01
3
# CELL(abcABC): 1322.94304  1322.94304  1322.94304    90.00000    90.00000    90.00000  Step:        8100  Bead:       1 positions{angstrom}  cell{angstrom}
       E  4.15235e+01  3.15994e+01 -3.19815e+01
       E  1.40235e+01  2.01773e+01 -5.99241e+00
       E -3.37484e+01 -3.98056e+01  1.28933e+00
3
# CELL(abcABC): 1322.94304  1322.94304  1322.94304    90.00000    90.00000    90.00000  Step:        8200  Bead:       1 positions{angstrom}  cell{angstrom}
       E  2.11561e+01  7.46515e+00 -3.50313e+01
       E  9.49508e+00  4.94565e+01 -1.43794e+01
       E  3.34285e+00 -5.34564e+01  9.64477e+00
3
# CELL(abcABC): 1322.94304  1322.94304  1322.94304    90.00000    90.00000    90.00000  Step:        8300  Bead:       1 positions{angstrom}  cell{angstrom}
       E  3.74857e+01  2.04240e+01 -2.59304e+01
       E  5.00672e+01  4.65206e+00  4.28038e+01
       E  5.05496e+00 -2.67687e+01  2.36546e+01
3
# CELL(abcABC): 1322.94304  1322.94304  1322.94304    90.00000    90.00000    90.00000  Step:        8400  Bead:       1 positions{angstrom}  cell{angstrom}
       E  3.60232e+01 -1.96941e+01 -7.69310e+00
       E  2.76179e+01  3.82830e+01  4.41181e+01
       E  2.22846e+01 -2.21906e+01  3.66179e+01
3
# CELL(abcABC): 1322.94304  1322.94304  1322.94304    90.00000    90.00000    90.00000  Step:        8500  Bead:       1 positions{angstrom}  cell{angstrom}
       E  3.59707e+00 -5.47824e+00 -2.93024e+01
       E  4.10168e+01  3.48056e+01  2.67846e+01
       E  3.56946e+01  3.20518e+00  3.11222e+01
3
# CELL(abcABC): 1322.94304  1322.94304  1322.94304    90.00000    90.00000    90.00000  Step:        8600  Bead:       1 positions{angstrom}  cell{angstrom}
       E -6.80910e+00 -1.13075e+01 -1.28204e+01
       E  4.06574e+01 -6.46488e+00  7.58015e+00
       E  5.14416e+01 -9.09851e-02  4.19135e+01
3
# CELL(abcABC): 1322.94304  1322.94304  1322.94304    90.00000    90.00000    90.00000  Step:        8700  Bead:       1 positions{angstrom}  cell{angstrom}
       E -2.72310e+01  2.92083e+01 -3.10461e+01
       E  3.84491e+01 -1.04843e+01 -1.74853e+01
       E  3.84009e+01 -5.22418e+01  3.23560e+01
3
# CELL(abcABC): 1322.94304  1322.94304  1322.94304    90.00000    90.00000    90.00000  Step:        8800  Bead:       1 positions{angstrom}  cell{angstrom}
       E -1.15333e+01  3.67130e+01 -2.36150e+01
       E -1.48252e+00 -3.12737e+01  1.52979e+01
       E  6.22145e+01 -7.28056e+01  5.51273e+01
3
# CELL(abcABC): 1322.94304  1322.94304  1322.94304    90.00000    90.00000    90.00000  Step:        8900  Bead:       1 positions{angstrom}  cell{angstrom}
       E -1.65323e+01  3.28640e+01 -1.84208e+01
       E -1.87867e+01 -2.83598e+01  3.54225e+01
       E  1.36160e+01 -7.16586e+01  3.23205e+01
3
# CELL(abcABC): 1322.94304  1322.94304  1322.94304    90.00000    90.00000    90.00000  Step:        9000  Bead:       1 positions{angstrom}  cell{angstrom}
       E -1.27396e+01  5.42011e+01  1.52987e+01
       E -3.42736e+01 -2.93797e+01  1.99415e+01
       E  8.35819e+00 -6.73903e+01 -1.09537e+00
3
# CELL(abcABC): 1322.94304  1322.94304  1322.94304    90.00000    90.00000    90.00000  Step:        9100  Bead:       1 positions{angstrom}  cell{angstrom}
       E  1.94467e+01  4.58494e+01  2.57327e+01
       E -5.61976e+01  5.59887e+00  2.19753e+01
       E -6.55977e+00 -4.94698e+01 -4.05657e+00
3
# CELL(abcABC): 1322.94304  1322.94304  1322.94304    90.00000    90.00000    90.00000  Step:        9200  Bead:       1 positions{angstrom}  cell{angstrom}
       E  1.84195e+01  3.66902e+01 -9.84776e+00
       E -3.87635e+00 -2.07128e+01  5.29011e+01
       E  4.95712e+00 -4.85783e+01 -2.55754e+01
3
# CELL(abcABC): 1322.94304  1322.94304  1322.94304    90.00000    90.00000    90.00000  Step:        9300  Bead:       1 positions{angstrom}  cell{angstrom}
       E  4.87025e+01  6.07721e+01 -5.24954e+01
       E  1.06691e+01 -5.47080e+01  2.99990e+01
       E  5.24335e+01 -2.61918e+01  1.62219e+01
3
# CELL(abcABC): 1322.94304  1322.94304  1322.94304    90.00000    90.00000    90.00000  Step:        9400  Bead:       1 positions{angstrom}  cell{angstrom}
       E  3.52266e+01  3.28170e+01 -3.90681e+01
       E  2.20120e+01 -3.34396e+01  1.12036e+01
       E  1.52706e+01 -1.07920e+01  1.78186e+01
3
# CELL(abcABC): 1322.94304  1322.94304  1322.94304    90.00000    90.00000    90.00000  Step:        9500  Bead:       1 positions{angstrom}  cell{angstrom}
       E -5.32305e+00  2.74084e+01 -3.05700e+01
       E  4.21064e+01 -2.02189e+01  2.22490e+01
       E -1.77507e+01 -5.44350e+00  1.01392e+01
3
# CELL(abcABC): 1322.94304  1322.94304  1322.94304    90.00000    90.00000    90.00000  Step:        9600  Bead:       1 positions{angstrom}  cell{angstrom}
       E -1.48091e+01  8.35383e-01 -5.23705e+01
       E  2.09890e+01 -2.93743e+01  3.78161e+01
       E -2.23845e+01 -4.56706e+01 -6.38039e+00
3
# CELL(abcABC): 1322.94304  1322.94304  1322.94304    90.00000    90.00000    90.00000  Step:        9700  Bead:       1 positions{angstrom}  cell{angstrom}
       E -5.40941e+01 -1.62899e+01 -6.91032e+01
       E  4.82122e+01 -6.74643e+01  7.69208e+00
       E -2.76127e+01 -2.26829e+01 -1.97789e+00
3
# CELL(abcABC): 1322.94304  1322.94304  1322.94304    90.00000    90.00000    90.00000  Step:        9800  Bead:       1 positions{angstrom}  cell{angstrom}
       E -4.69486e+01 -6.79203e+01 -6.65617e+01
       E  5.38854e+01 -9.47987e+01 -1.39799e+01
       E  8.96131e-01 -2.73582e+01  4.19148e+01
3