3
# CELL(abcABC): 1322.94304  1322.94304  1322.94304    90.00000    90.00000    90.00000  Step:           0  Bead:      14 positions{angstrom}  cell{angstrom}
       E  0.00000e+00  0.00000e+00  0.00000e+00
       E  0.00000e+00  0.00000e+00  0.00000e+00
       E  0.00000e+00  0.00000e+00  0.00000e+00
3
# CELL(abcABC): 1322.94304  1322.94304  1322.94304    90.00000    90.00000    90.00000  Step:         100  Bead:      14 positions{angstrom}  cell{angstrom}
       E  6.96847e+00 -6.66929e+00  2.29131e+01
       E  3.80194e+01 -1.49773e+01 -8.97915e+00
       E -1.22772e+01  1.81412e+01 -2.89110e+01
3
# CELL(abcABC): 1322.94304  1322.94304  1322.94304    90.00000    90.00000    90.00000  Step:         200  Bead:      14 positions{angstrom}  cell{angstrom}
       E  4.54952e-01  1.67618e+01 -5.55761e+00
       E  1.49854e+01 -3.30565e+01 -2.00014e+01
       E -1.55389e+01  1.54518e+01 -5.83490e+00
3
# CELL(abcABC): 1322.94304  1322.94304  1322.94304    90.00000    90.00000    90.00000  Step:         300  Bead:      14 positions{angstrom}  cell{angstrom}
       E -1.92894e+01  2.82219e+01  6.72904e+00
       E  5.17302e+00 -8.25322e+00 -2.70082e+01
       E -1.68981e+01  3.70749e+01  1.02434e+01
3
# CELL(abcABC): 1322.94304  1322.94304  1322.94304    90.00000    90.00000    90.00000  Step:         400  Bead:      14 positions{angstrom}  cell{angstrom}
       E -2.93205e+01  2.97824e+01  2.80899e+01
       E  2.01708e+01  2.60627e+01 -6.14620e+00
       E -1.66301e+01  1.73663e+01  2.74699e+01
3
# CELL(abcABC): 1322.94304  1322.94304  1322.94304    90.00000    90.00000    90.00000  Step:         500  Bead:      14 positions{angstrom}  cell{angstrom}
       E -2.58091e+01  1.97029e+01  4.39142e+00
       E  5.57030e+01  3.40322e+01 -1.10642e+01
       E  1.96750e+01  1.21272e+01  2.78820e+01
3
# CELL(abcABC): 1322.94304  1322.94304  1322.94304    90.00000    90.00000    90.00000  Step:         600  Bead:      14 positions{angstrom}  cell{angstrom}
       E  1.34409e+00  4.32670e+00 -3.84406e+01
       E  2.45440e+01 -8.19856e+00  1.84377e+01
       E  5.67972e-01 -9.89826e+00  1.49057e+01
3
# CELL(abcABC): 1322.94304  1322.94304  1322.94304    90.00000    90.00000    90.00000  Step:         700  Bead:      14 positions{angstrom}  cell{angstrom}
       E -3.31476e+01  2.09912e+01 -3.47327e+01
       E  6.20167e+00  4.51577e+01  2.40016e+01
       E -7.59828e+00  1.85966e+01  1.16195e+01
3
# CELL(abcABC): 1322.94304  1322.94304  1322.94304    90.00000    90.00000    90.00000  Step:         800  Bead:      14 positions{angstrom}  cell{angstrom}
       E -1.62239e+01  2.91208e+01  2.95228e+01
       E  3.70435e+00  5.01489e+01 -8.48824e+00
       E -3.28387e+01 -3.51823e+00  3.34732e+01
3
# CELL(abcABC): 1322.94304  1322.94304  1322.94304    90.00000    90.00000    90.00000  Step:         900  Bead:      14 positions{angstrom}  cell{angstrom}
       E  4.02373e-01  3.27390e+00 -4.79156e+00
       E  1.65451e+01  3.63224e+01 -2.42557e+01
       E -1.65816e+01 -1.14281e+00  5.49839e+01
3
# CELL(abcABC): 1322.94304  1322.94304  1322.94304    90.00000    90.00000    90.00000  Step:        1000  Bead:      14 positions{angstrom}  cell{angstrom}
       E -3.75807e+00 -6.72954e-01 -2.66175e+01
       E  6.74535e+00  2.23989e+00 -4.46768e+01
       E -4.12229e+00 -1.51324e+01  5.71164e+01
3
# CELL(abcABC): 1322.94304  1322.94304  1322.94304    90.00000    90.00000    90.00000  Step:        1100  Bead:      14 positions{angstrom}  cell{angstrom}
       E  2.51871e+01 -3.12086e+01 -1.50019e+01
       E -1.33813e+01  1.33215e+01 -4.10344e+01
       E -4.03369e+00  6.03233e+01  6.72102e+00
3
# CELL(abcABC): 1322.94304  1322.94304  1322.94304    90.00000    90.00000    90.00000  Step:        1200  Bead:      14 positions{angstrom}  cell{angstrom}
       E -2.95910e+00  2.22648e+00 -6.25087e+01
       E -4.82344e+00 -2.95078e+01  9.19889e+00
       E  2.32581e+01  4.96463e+01  3.53049e+01
3
# CELL(abcABC): 1322.94304  1322.94304  1322.94304    90.00000    90.00000    90.00000  Step:        1300  Bead:      14 positions{angstrom}  cell{angstrom}
       E -5.30894e+00 -5.21787e+00 -6.14587e+01
       E  5.11333e+01 -2.52207e+00 -1.95916e+01
       E -4.10054e+00  1.63531e+01  6.04888e+00
3
# CELL(abcABC): 1322.94304  1322.94304  1322.94304    90.00000    90.00000    90.00000  Step:        1400  Bead:      14 positions{angstrom}  cell{angstrom}
       E  1.69764e+01  3.62355e+01 -9.05970e+01
       E  1.15347e+00 -3.77829e+00 -2.61264e+01
       E  1.31322e+00 -3.04871e-01 -1.04107e+01
3
# CELL(abcABC): 1322.94304  1322.94304  1322.94304    90.00000    90.00000    90.00000  Step:        1500  Bead:      14 positions{angstrom}  cell{angstrom}
       E -2.36688e+01  2.79182e+01 -5.78123e+01
       E -4.42899e+00 -1.93481e+00 -1.10342e+01
       E -3.10485e+01  1.55581e+01  3.28381e+01
3
# CELL(abcABC): 1322.94304  1322.94304  1322.94304    90.00000    90.00000    90.00000  Step:        1600  Bead:      14 positions{angstrom}  cell{angstrom}
       E -5.36952e+00  5.50864e+01 -5.88238e+01
       E  1.01728e+01  7.92415e+01  4.37875e+00
       E -4.67998e+01  1.63871e+01  2.51949e+01
3
# CELL(abcABC): 1322.94304  1322.94304  1322.94304    90.00000    90.00000    90.00000  Step:        1700  Bead:      14 positions{angstrom}  cell{angstrom}
       E  5.43525e+00  1.64871e+01  1.59028e+01
       E  3.15449e+00  1.03790e+02  2.27278e+01
       E -4.34127e+01  2.12730e+01  1.49081e+01
3
# CELL(abcABC): 1322.94304  1322.94304  1322.94304    90.00000    90.00000    90.00000  Step:        1800  Bead:      14 positions{angstrom}  cell{angstrom}
       E  1.75839e+01  3.77275e+01  1.55020e+01
       E -4.32222e+01  8.30287e+01  2.36132e+01
       E -9.14813e+01  5.22244e+01  1.80514e+01
3
# CELL(abcABC): 1322.94304  1322.94304  1322.94304    90.00000    90.00000    90.00000  Step:        1900  Bead:      14 positions{angstrom}  cell{angstrom}
       E  6.87306e+00  1.46826e+01  5.09951e+01
       E -6.72302e+01  6.12600e+01  2.27232e-01
       E -3.70527e+01  4.68443e+01  4.12226e+01
3
# CELL(abcABC): 1322.94304  1322.94304  1322.94304    90.00000    90.00000    90.00000  Step:        2000  Bead:      14 positions{angstrom}  cell{angstrom}
       E -3.15786e+01 -8.34128e-01  4.25971e+01
       E -5.11212e+01  4.63205e+01  2.25138e+01
       E -8.57182e+01  9.54668e+01  3.30679e+01
3
# CELL(abcABC): 1322.94304  1322.94304  1322.94304    90.00000    90.00000    90.00000  Step:        2100  Bead:      14 positions{angstrom}  cell{angstrom}
       E -3.27002e+01 -5.63511e+01  6.38779e+01
       E -4.26220e+01  5.19897e+01 -1.18272e+01
       E -6.71522e+01  6.72795e+01  2.56915e+01
3
# CELL(abcABC): 1322.94304  1322.94304  1322.94304    90.00000    90.00000    90.00000  Step:        2200  Bead:      14 positions{angstrom}  cell{angstrom}
       E -2.68195e+01 -6.07900e+01  6.58892e+01
       E -2.28569e+01 -1.62971e+01 -1.07326e+01
       E -4.84739e+01  5.81015e+01  1.02600e+01
3
# CELL(abcABC): 1322.94304  1322.94304  1322.94304    90.00000    90.00000    90.00000  Step:        2300  Bead:      14 positions{angstrom}  cell{angstrom}
       E -4.43390e+01 -6.36089e+01  4.46457e+01
       E -2.25450e+01 -1.43887e+01  1.29638e+01
       E -3.31044e+01  3.23805e+01  4.87821e+01
3
# CELL(abcABC): 1322.94304  1322.94304  1322.94304    90.00000    90.00000    90.00000  Step:        2400  Bead:      14 positions{angstrom}  cell{angstrom}
       E -3.95703e+01 -6.04907e+01  3.44915e+01
       E  1.13063e+01  1.28061e+01 -5.22777e+00
       E  7.33551e+00  2.52060e+01  3.71965e+01
3
# CELL(abcABC): 1322.94304  1322.94304  1322.94304    90.00000    90.00000    90.00000  Step:        2500  Bead:      14 positions{angstrom}  cell{angstrom}
       E -3.11568e+01 -2.66200e+01  3.00800e+01
       E  3.70558e+00 -2.92354e+01 -5.35996e+01
       E  6.89941e+00 -3.47816e+00  1.44793e+01
3
# CELL(abcABC): 1322.94304  1322.94304  1322.94304    90.00000    90.00000    90.00000  Step:        2600  Bead:      14 positions{angstrom}  cell{angstrom}
       E -1.69752e+01 -1.21532e+01  3.87684e+01
       E -4.62350e+01 -3.33334e+01 -2.53001e+01
       E  1.37053e+01 -3.40841e+01  1.36696e+01
3
# CELL(abcABC): 1322.94304  1322.94304  1322.94304    90.00000    90.00000    90.00000  Step:        2700  Bead:      14 positions{angstrom}  cell{angstrom}
       E -3.18028e+01  2.55805e+01  2.04694e+01
       E -2.02546e+01 -1.88533e+01  2.39217e+00
       E  1.35752e+01 -3.11618e+01  7.59668e+00
3
# CELL(abcABC): 1322.94304  1322.94304  1322.94304    90.00000    90.00000    90.00000  Step:        2800  Bead:      14 positions{angstrom}  cell{angstrom}
       E -2.30977e+01 -3.99841e+01  3.85419e+01
       E -4.09835e+01 -3.40446e+01 -1.42737e+00
       E  2.67581e+01 -2.57184e+01  1.72673e+01
3
# CELL(abcABC): 1322.94304  1322.94304  1322.94304    90.00000    90.00000    90.00000  Step:        2900  Bead:      14 positions{angstrom}  cell{angstrom}
       E -5.32171e+01 -1.64533e+01  2.09386e+01
       E -2.28774e+01 -7.66464e+01 -2.16419e+01
       E -1.68364e+01  6.52751e+00  1.22426e+00
3
# CELL(abcABC): 1322.94304  1322.94304  1322.94304    90.00000    90.00000    90.00000  Step:        3000  Bead:      14 positions{angstrom}  cell{angstrom}
       E -5.04753e+01 -1.95586e+01  2.12434e+01
       E -3.50581e+01 -7.81376e+01  1.88528e+01
       E -2.10555e+01  3.66806e+01 -1.79862e+01
3
# CELL(abcABC): 1322.94304  1322.94304  1322.94304    90.00000    90.00000    90.00000  Step:        3100  Bead:      14 positions{angstrom}  cell{angstrom}
       E -2.58375e+01 -2.49187e+01  1.73754e+01
       E -4.17423e+01 -4.65091e+01  5.17944e+01
       E -6.29166e-01  4.20857e+01  3.50135e+01
3
# CELL(abcABC): 1322.94304  1322.94304  1322.94304    90.00000    90.00000    90.00000  Step:        3200  Bead:      14 positions{angstrom}  cell{angstrom}
       E -1.76287e+01 -1.54629e+01  9.77320e+00
       E -6.91827e+01 -4.74362e+01  5.27937e+01
       E  4.56252e+01  5.66030e+01  3.39832e+01
3
# CELL(abcABC): 1322.94304  1322.94304  1322.94304    90.00000    90.00000    90.00000  Step:        3300  Bead:      14 positions{angstrom}  cell{angstrom}
       E -4.34868e+01 -4.08839e+01 -1.53816e+01
       E -4.83361e+01 -1.11307e+01  6.63864e+01
       E -2.80620e+01  6.12713e+01  5.52863e+01
3
# CELL(abcABC): 1322.94304  1322.94304  1322.94304    90.00000    90.00000    90.00000  Step:        3400  Bead:      14 positions{angstrom}  cell{angstrom}
       E -5.25656e+01  4.00228e+00  6.71863e+00
       E -4.23535e+01 -1.46706e+01  9.71252e+01
       E -1.07308e+01  6.51729e+01  3.88334e+01
3
# CELL(abcABC): 1322.94304  1322.94304  1322.94304    90.00000    90.00000    90.00000  Step:        3500  Bead:      14 positions{angstrom}  cell{angstrom}
       E -6.69668e+01  1.53824e+01  4.14691e+01
       E -4.82555e+00 -1.65706e+00  2.01507e+01
       E -3.24209e+01  4.09314e+01  3.73020e+01
3
# CELL(abcABC): 1322.94304  1322.94304  1322.94304    90.00000    90.00000    90.00000  Step:        3600  Bead:      14 positions{angstrom}  cell{angstrom}
       E -6.39383e+01  3.08196e+00  3.98943e+01
       E  2.05262e+01  3.02379e+01  1.34300e+01
       E  7.26622e+00  4.42589e+01  1.37088e+01
3
# CELL(abcABC): 1322.94304  1322.94304  1322.94304    90.00000    90.00000    90.00000  Step:        3700  Bead:      14 positions{angstrom}  cell{angstrom}
       E -7.57551e+01 -1.47507e+01 -1.99180e+01
       E -8.51470e+00 -9.21835e+00  6.68500e+00
       E -4.43474e+01  3.90326e+00 -9.60526e-01
3
# CELL(abcABC): 1322.94304  1322.94304  1322.94304    90.00000    90.00000    90.00000  Step:        3800  Bead:      14 positions{angstrom}  cell{angstrom}
       E -7.82258e+01 -4.01080e+01 -3.75286e+01
       E -2.73115e+01 -2.14685e+01 -2.12903e+01
       E -5.78554e+01  1.52303e+01 -9.86936e+00
3
# CELL(abcABC): 1322.94304  1322.94304  1322.94304    90.00000    90.00000    90.00000  Step:        3900  Bead:      14 positions{angstrom}  cell{angstrom}
       E -9.48787e+01  1.08825e+01 -4.25112e+01
       E -2.89177e+01 -1.28623e+00  1.08403e+00
       E -3.35190e+01  3.02201e+01 -3.25142e+00
3
# CELL(abcABC): 1322.94304  1322.94304  1322.94304    90.00000    90.00000    90.00000  Step:        4000  Bead:      14 positions{angstrom}  cell{angstrom}
       E -8.14396e+01  4.54401e+01 -7.47109e+01
       E -5.03084e+01  2.07795e+01  4.84682e+01
       E -2.38151e+01  3.59571e+01  4.77007e+00
3
# CELL(abcABC): 1322.94304  1322.94304  1322.94304    90.00000    90.00000    90.00000  Step:        4100  Bead:      14 positions{angstrom}  cell{angstrom}
       E -5.13353e+01  4.60857e+01 -7.99051e+01
       E -4.15351e+01  3.89707e+01  4.42134e+01
       E -1.41638e+01  1.59825e+01  3.65202e+01
3
# CELL(abcABC): 1322.94304  1322.94304  1322.94304    90.00000    90.00000    90.00000  Step:        4200  Bead:      14 positions{angstrom}  cell{angstrom}
       E -8.53972e+00  2.96348e+01 -7.17436e+01
       E -4.03684e+01  3.87851e+01  4.66558e+01
       E  1.61841e+01  2.45881e+01  7.49861e+01
3
# CELL(abcABC): 1322.94304  1322.94304  1322.94304    90.00000    90.00000    90.00000  Step:        4300  Bead:      14 positions{angstrom}  cell{angstrom}
       E -7.32112e+01  3.09931e+01 -4.84937e+01
       E -7.70866e+01  4.78624e+01  4.52202e+01
       E -1.05760e+01  3.24645e+01  5.67070e+01
3
# CELL(abcABC): 1322.94304  1322.94304  1322.94304    90.00000    90.00000    90.00000  Step:        4400  Bead:      14 positions{angstrom}  cell{angstrom}
       E -4.49209e+01  9.16787e+00 -4.51286e+01
       E -3.96335e+01  5.78041e+01 -4.96540e+00
       E -2.51437e+01 -1.02051e+01 -1.37425e+01
3
# CELL(abcABC): 1322.94304  1322.94304  1322.94304    90.00000    90.00000    90.00000  Step:        4500  Bead:      14 positions{angstrom}  cell{angstrom}
       E -6.14304e+01  4.14524e+00 -5.45743e+01
       E -7.62713e+01  8.29239e+01 -2.77694e+01
       E -1.58393e+01 -5.57391e+00  2.42389e+01
3
# CELL(abcABC): 1322.94304  1322.94304  1322.94304    90.00000    90.00000    90.00000  Step:        4600  Bead:      14 positions{angstrom}  cell{angstrom}
       E -3.77405e+00  5.82762e+00 -6.47328e+01
       E -4.66886e+01  4.64662e+01 -4.36287e+01
       E -5.18534e+00 -1.30193e+00  1.37893e+01
3
# CELL(abcABC): 1322.94304  1322.94304  1322.94304    90.00000    90.00000    90.00000  Step:        4700  Bead:      14 positions{angstrom}  cell{angstrom}
       E  8.62157e-01  3.81727e+01 -1.21992e+01
       E -6.14101e+01  2.37291e+01 -5.05414e+01
       E  4.07119e+01  8.88619e+00  6.71935e+00
3
# CELL(abcABC): 1322.94304  1322.94304  1322.94304    90.00000    90.00000    90.00000  Step:        4800  Bead:      14 positions{angstrom}  cell{angstrom}
       E  8.53319e+00  3.55282e+01 -1.22203e+00
       E -4.43924e+01  1.05203e+01 -3.31545e+01
       E  4.73192e+01  1.24904e+01  4.20400e+00
3
# CELL(abcABC): 1322.94304  1322.94304  1322.94304    90.00000    90.00000    90.00000  Step:        4900  Bead:      14 positions{angstrom}  cell{angstrom}
       E -3.99578e+00  1.00632e+01  3.07928e+01
       E -2.55754e+01  2.84194e+01 -2.62858e+01
       E  2.16061e+01  9.34956e+00 -1.10267e+00
3
# CELL(abcABC): 1322.94304  1322.94304  1322.94304    90.00000    90.00000    90.00000  Step:        5000  Bead:      14 positions{angstrom}  cell{angstrom}
       E -3.00344e+01 -8.42922e+00  6.19336e+00
       E -5.74392e-01  1.45539e+01 -6.59273e+01
       E  1.70289e+01 -3.96975e+01 -8.73065e+00
3
# CELL(abcABC): 1322.94304  1322.94304  1322.94304    90.00000    90.00000    90.00000  Step:        5100  Bead:      14 positions{angstrom}  cell{angstrom}
       E -5.14330e+01  1.14003e+01  1.13378e+01
       E -2.46815e+00  4.66572e+01 -3.59654e+01
       E -7.03165e+00 -2.24516e+01 -1.72417e+01
3
# CELL(abcABC): 1322.94304  1322.94304  1322.94304    90.00000    90.00000    90.00000  Step:        5200  Bead:      14 positions{angstrom}  cell{angstrom}
       E -2.15817e+01  1.52487e+01  3.12261e+01
       E  8.68782e+00  5.09124e+01 -3.01199e+01
       E -1.66566e+01  1.98410e+01  1.23942e+01
3
# CELL(abcABC): 1322.94304  1322.94304  1322.94304    90.00000    90.00000    90.00000  Step:        5300  Bead:      14 positions{angstrom}  cell{angstrom}
       E -3.27370e+01  1.19356e+01  5.09051e+01
       E -1.51534e+01  5.92136e+01 -1.08448e+01
       E -1.27883e+01  2.85997e+01  4.55603e+01
3
# CELL(abcABC): 1322.94304  1322.94304  1322.94304    90.00000    90.00000    90.00000  Step:        5400  Bead:      14 positions{angstrom}  cell{angstrom}
       E -1.25075e+01 -1.20264e+01  3.63554e+01
       E  1.24718e+01  2.65829e+01 -3.27831e+01
       E -3.27126e+01  4.83434e+01  5.58949e+01
3
# CELL(abcABC): 1322.94304  1322.94304  1322.94304    90.00000    90.00000    90.00000  Step:        5500  Bead:      14 positions{angstrom}  cell{angstrom}
       E  6.56396e+00  1.33402e+01  3.39518e+01
       E -8.29202e+00 -1.28242e+01 -1.63159e+01
       E -3.41273e+01  6.78801e-01  4.91877e+01
3
# CELL(abcABC): 1322.94304  1322.94304  1322.94304    90.00000    90.00000    90.00000  Step:        5600  Bead:      14 positions{angstrom}  cell{angstrom}
       E -2.01940e+01  1.86143e+01  2.23025e+01
       E -1.33995e+01  1.33352e+01 -2.08551e+01
       E -4.14199e+01 -1.28179e+01  1.32575e+01
3
# CELL(abcABC): 1322.94304  1322.94304  1322.94304    90.00000    90.00000    90.00000  Step:        5700  Bead:      14 positions{angstrom}  cell{angstrom}
       E -1.20874e+01 -1.91623e+01  1.19392e+01
       E -2.12307e+01  5.73976e+01  1.05026e+01
       E -4.15230e+01  2.03657e+01  2.53772e+01
3
# CELL(abcABC): 1322.94304  1322.94304  1322.94304    90.00000    90.00000    90.00000  Step:        5800  Bead:      14 positions{angstrom}  cell{angstrom}
       E -8.06656e+00 -1.32873e+01 -1.61616e+01
       E -4.72287e+01  3.70841e+01 -3.39504e+01
       E -3.63903e+00  2.41618e+01 -1.03968e+01
3
# CELL(abcABC): 1322.94304  1322.94304  1322.94304    90.00000    90.00000    90.00000  Step:        5900  Bead:      14 positions{angstrom}  cell{angstrom}
       E -8.24850e-01 -1.07038e+01 -2.39127e+01
       E -2.31180e+01  1.10754e+01 -5.50511e+00
       E  3.29793e+00  8.28201e+00 -3.32341e+00
3
# CELL(abcABC): 1322.94304  1322.94304  1322.94304    90.00000    90.00000    90.00000  Step:        6000  Bead:      14 positions{angstrom}  cell{angstrom}
       E  2.65544e+01 -3.78793e+00 -3.51869e+00
       E -1.10250e+01  8.23011e+00  1.50677e+01
       E -1.33447e+01  3.02839e+01  8.95708e+00
3
# CELL(abcABC): 1322.94304  1322.94304  1322.94304    90.00000    90.00000    90.00000  Step:        6100  Bead:      14 positions{angstrom}  cell{angstrom}
       E -3.00534e+01 -6.38684e+01 -2.14305e+01
       E  2.11148e+01  2.55945e+01  3.29198e+01
       E -1.63492e+01  2.03240e+01 -7.35668e+00
3
# CELL(abcABC): 1322.94304  1322.94304  1322.94304    90.00000    90.00000    90.00000  Step:        6200  Bead:      14 positions{angstrom}  cell{angstrom}
       E  5.15517e+00 -8.42525e+00 -5.88061e+01
       E  5.75181e+01  4.46557e+01 -1.60307e+00
       E  2.35338e+01  5.77814e+00 -1.86003e+01
3
# CELL(abcABC): 1322.94304  1322.94304  1322.94304    90.00000    90.00000    90.00000  Step:        6300  Bead:      14 positions{angstrom}  cell{angstrom}
       E -1.01550e+01 -5.71886e+01 -7.27067e+01
       E  9.04044e+01  6.03644e+00 -1.66635e+01
       E  2.96130e+01 -1.70907e+01 -3.44931e+01
3
# CELL(abcABC): 1322.94304  1322.94304  1322.94304    90.00000    90.00000    90.00000  Step:        6400  Bead:      14 positions{angstrom}  cell{angstrom}
       E -1.23883e+01 -7.22290e+01 -5.01265e+01
       E  6.51802e+01  3.03289e+01 -1.78711e+01
       E  1.53618e+01  1.25081e+01 -2.94700e+01
3
# CELL(abcABC): 1322.94304  1322.94304  1322.94304    90.00000    90.00000    90.00000  Step:        6500  Bead:      14 positions{angstrom}  cell{angstrom}
       E -2.47153e+01 -7.39745e+01 -6.78194e+01
       E  4.84805e-02  1.59172e+01 -1.70304e+01
       E  3.17272e+01 -2.46560e+01 -1.92420e+01
3
# CELL(abcABC): 1322.94304  1322.94304  1322.94304    90.00000    90.00000    90.00000  Step:        6600  Bead:      14 positions{angstrom}  cell{angstrom}
       E -1.50710e+01 -6.59786e+01 -8.25968e+01
       E  8.63091e+00 -3.88126e+01 -2.99888e+01
       E  4.83144e+01 -2.80024e+01 -1.90728e+01
3
# CELL(abcABC): 1322.94304  1322.94304  1322.94304    90.00000    90.00000    90.00000  Step:        6700  Bead:      14 positions{angstrom}  cell{angstrom}
       E -1.09912e+01 -8.44566e+01 -4.72019e+01
       E  1.80682e+01 -1.29421e+01  2.86542e+00
       E  1.10705e+01  4.27506e+00 -3.43124e+01
3
# CELL(abcABC): 1322.94304  1322.94304  1322.94304    90.00000    90.00000    90.00000  Step:        6800  Bead:      14 positions{angstrom}  cell{angstrom}
       E -9.31650e+00 -1.06694e+02 -4.82925e+01
       E  3.61239e+01 -2.84099e+01  9.86348e+00
       E  4.37032e+01  3.41023e+01 -1.18503e+01
3
# CELL(abcABC): 1322.94304  1322.94304  1322.94304    90.00000    90.00000    90.00000  Step:        6900  Bead:      14 positions{angstrom}  cell{angstrom}
       E -6.66635e-01 -6.52242e+01 -4.50501e+01
       E -3.38150e-01 -2.37984e+01  1.03342e+01
       E  1.81177e+00  5.22716e+01 -1.19779e+01
3
# CELL(abcABC): 1322.94304  1322.94304  1322.94304    90.00000    90.00000    90.00000  Step:        7000  Bead:      14 positions{angstrom}  cell{angstrom}
       E  3.48664e+01 -7.90436e+01 -2.53842e+01
       E  6.33905e-01 -3.26945e+01  4.65505e+01
       E  1.37326e+00  6.19194e+01  8.75352e+00
3
# CELL(abcABC): 1322.94304  1322.94304  1322.94304    90.00000    90.00000    90.00000  Step:        7100  Bead:      14 positions{angstrom}  cell{angstrom}
       E  3.22357e+01 -4.30522e+01 -1.88113e+01
       E -3.19500e+01 -1.97763e+01  3.42885e+01
       E  2.76181e+01  6.14980e+01 -1.62985e+01
3
# CELL(abcABC): 1322.94304  1322.94304  1322.94304    90.00000    90.00000    90.00000  Step:        7200  Bead:      14 positions{angstrom}  cell{angstrom}
       E  2.73497e+01 -1.85852e+01 -2.54499e+00
       E -3.74149e+01 -1.58769e+01  4.14448e+01
       E  2.81333e+01  3.16835e+01 -2.54615e+01
3
# CELL(abcABC): 1322.94304  1322.94304  1322.94304    90.00000    90.00000    90.00000  Step:        7300  Bead:      14 positions{angstrom}  cell{angstrom}
       E  1.92911e+01 -3.89819e+01 -3.08009e+01
       E -2.09411e+01  3.68170e+01  3.33471e+01
       E  1.92938e+01  2.20489e+01 -1.67704e+01
3
# CELL(abcABC): 1322.94304  1322.94304  1322.94304    90.00000    90.00000    90.00000  Step:        7400  Bead:      14 positions{angstrom}  cell{angstrom}
       E  3.79451e+01 -2.91354e+01 -7.60576e+01
       E -1.68823e+01  2.16887e+01 -7.45914e+00
       E  1.33345e+01  4.51356e+01 -5.73537e+00
3
# CELL(abcABC): 1322.94304  1322.94304  1322.94304    90.00000    90.00000    90.00000  Step:        7500  Bead:      14 positions{angstrom}  cell{angstrom}
       E -5.52614e-01 -7.73228e+01 -3.50183e+01
       E -3.26921e+01 -1.77314e+00 -1.52528e+01
       E  2.42880e+01  4.04142e+01  1.81668e+01
3
# CELL(abcABC): 1322.94304  1322.94304  1322.94304    90.00000    90.00000    90.00000  Step:        7600  Bead:      14 positions{angstrom}  cell{angstrom}
       E  1.81573e+01 -5.36219e+01 -4.00953e+01
       E  8.40538e+00 -2.74286e+01 -3.45503e+01
       E  2.87493e+01  2.00015e+01 -1.62253e+00
3
# CELL(abcABC): 1322.94304  1322.94304  1322.94304    90.00000    90.00000    90.00000  Step:        7700  Bead:      14 positions{angstrom}  cell{angstrom}
       E  4.18726e+01 -6.94547e+01 -6.41975e+00
       E  4.37304e+00 -3.36731e+01 -6.37738e+01
       E  1.23403e+01  2.01321e+01 -3.41576e+01
3
# CELL(abcABC): 1322.94304  1322.94304  1322.94304    90.00000    90.00000    90.00000  Step:        7800  Bead:      14 positions{angstrom}  cell{angstrom}
       E  5.50440e+00 -5.89552e+01 -4.97377e+01
       E  5.91433e+00 -3.38069e+01 -3.07283e+01
       E  1.17528e+01  1.08646e+01 -5.59204e+01
3
# CELL(abcABC): 1322.94304  1322.94304  1322.94304    90.00000    90.00000    90.00000  Step:        7900  Bead:      14 positions{angstrom}  cell{angstrom}
       E  4.15779e+01 -2.75201e+01 -3.34940e+01
       E  1.19381e+01  7.73309e+00 -3.12458e+01
       E -5.19068e+00 -2.11808e+01 -3.87336e+01
3
# CELL(abcABC): 1322.94304  1322.94304  1322.94304    90.00000    90.00000    90.00000  Step:        8000  Bead:      14 positions{angstrom}  cell{angstrom}
       E  3.52476e+01 -4.17557e+01 -6.45333e+01
       E -2.49050e+01  4.60885e+01 -9.99850e+00
       E -3.44853e+00 -1.98914e+01 -4.24175e+01
3
# CELL(abcABC): 1322.94304  1322.94304  1322.94304    90.00000    90.00000    90.00000  Step:        8100  Bead:      14 positions{angstrom}  cell{angstrom}
       E  1.32447e+01  7.85693e+00 -6.42517e+01
       E  4.47707e+00  3.50494e+01 -1.09906e+01
       E -1.39401e+01 -1.22347e+01  1.05814e+00
3
# CELL(abcABC): 1322.94304  1322.94304  1322.94304    90.00000    90.00000    90.00000  Step:        8200  Bead:      14 positions{angstrom}  cell{angstrom}
       E  2.60635e+01  3.65996e+01 -6.73419e+01
       E -1.56551e+01  1.69722e+01 -2.16970e+01
       E -1.22928e+01 -2.16571e+01  3.99355e+01
3
# CELL(abcABC): 1322.94304  1322.94304  1322.94304    90.00000    90.00000    90.00000  Step:        8300  Bead:      14 positions{angstrom}  cell{angstrom}
       E  4.16973e+01  3.68754e+01 -6.95994e+01
       E -3.04946e+00  5.67034e+01  1.61264e+01
       E  1.95296e+01 -6.44527e+01  8.56257e+01
3
# CELL(abcABC): 1322.94304  1322.94304  1322.94304    90.00000    90.00000    90.00000  Step:        8400  Bead:      14 positions{angstrom}  cell{angstrom}
       E -1.13999e+00 -1.25028e+00 -2.97140e+01
       E  2.34909e+01  4.22668e+01 -1.97574e+01
       E -3.99137e+00 -4.24270e+01  7.32003e+01
3
# CELL(abcABC): 1322.94304  1322.94304  1322.94304    90.00000    90.00000    90.00000  Step:        8500  Bead:      14 positions{angstrom}  cell{angstrom}
       E -2.72296e+00  3.70316e+00 -2.04538e+01
       E  6.71251e+01  2.68279e+01 -8.11251e+00
       E  6.11623e+00 -2.70963e+01  3.68741e+01
3
# CELL(abcABC): 1322.94304  1322.94304  1322.94304    90.00000    90.00000    90.00000  Step:        8600  Bead:      14 positions{angstrom}  cell{angstrom}
       E -1.33327e+01 -1.06638e+01 -2.69017e+01
       E  1.62523e+01  1.43830e+01 -3.99759e+01
       E -1.89565e+00 -1.43189e+01  2.45876e+01
3
# CELL(abcABC): 1322.94304  1322.94304  1322.94304    90.00000    90.00000    90.00000  Step:        8700  Bead:      14 positions{angstrom}  cell{angstrom}
       E -1.33796e+01 -1.35348e+01 -1.75704e+01
       E  2.00705e+01  3.50216e+01 -3.93109e+01
       E -4.69722e+00 -4.30200e+01  5.54096e+01
3
# CELL(abcABC): 1322.94304  1322.94304  1322.94304    90.00000    90.00000    90.00000  Step:        8800  Bead:      14 positions{angstrom}  cell{angstrom}
       E -4.63639e+01  1.04350e+01  3.05987e+01
       E  1.65825e+01  6.29820e+00  1.03460e+01
       E  2.59575e+01 -6.74536e+01  3.33930e+01
3
# CELL(abcABC): 1322.94304  1322.94304  1322.94304    90.00000    90.00000    90.00000  Step:        8900  Bead:      14 positions{angstrom}  cell{angstrom}
       E -4.48075e+01  5.51788e+01  3.47284e+01
       E -4.97798e+00  4.97161e+00  1.82294e+01
       E  2.49232e+01 -4.42738e+01  5.11590e+01
3
# CELL(abcABC): 1322.94304  1322.94304  1322.94304    90.00000    90.00000    90.00000  Step:        9000  Bead:      14 positions{angstrom}  cell{angstrom}
       E -2.76467e+01  4.38868e+01  1.58589e+01
       E -3.57941e+00  3.17208e+00  5.12324e+01
       E  3.33476e+01 -1.27983e+01  2.56161e+01
3
# CELL(abcABC): 1322.94304  1322.94304  1322.94304    90.00000    90.00000    90.00000  Step:        9100  Bead:      14 positions{angstrom}  cell{angstrom}
       E  1.54625e+01  1.37322e+01  3.13479e+01
       E -2.93787e+01  2.32506e+01  8.50433e+01
       E  2.35689e+01 -2.00284e+01  4.80590e+01
3
# CELL(abcABC): 1322.94304  1322.94304  1322.94304    90.00000    90.00000    90.00000  Step:        9200  Bead:      14 positions{angstrom}  cell{angstrom}
       E  4.59681e+01  2.55532e+01  1.78398e+01
       E -3.00452e+01  6.44387e+00  5.84509e+01
       E  1.07782e+01 -7.00298e+01  1.16971e+01
3
# CELL(abcABC): 1322.94304  1322.94304  1322.94304    90.00000    90.00000    90.00000  Step:        9300  Bead:      14 positions{angstrom}  cell{angstrom}
       E  1.38584e+01  3.27917e+01 -3.09598e+00
       E -3.96358e+01 -1.19359e+01  1.41987e+01
       E  1.61665e+00 -6.96030e+01 -1.04626e+01
3
# CELL(abcABC): 1322.94304  1322.94304  1322.94304    90.00000    90.00000    90.00000  Step:        9400  Bead:      14 positions{angstrom}  cell{angstrom}
       E  3.26925e+01  7.77846e+01 -3.27982e+01
       E -4.04424e+01 -3.20128e+01 -2.92444e-01
       E  3.32075e+01 -4.15856e+01 -2.02598e+01
3
# CELL(abcABC): 1322.94304  1322.94304  1322.94304    90.00000    90.00000    90.00000  Step:        9500  Bead:      14 positions{angstrom}  cell{angstrom}
       E  1.79801e+01  4.99028e+01 -6.94979e+01
       E -6.87084e+00 -4.59653e+01  3.57881e+01
       E  4.13685e+01 -3.47443e+01  2.91909e+01
3
# CELL(abcABC): 1322.94304  1322.94304  1322.94304    90.00000    90.00000    90.00000  Step:        9600  Bead:      14 positions{angstrom}  cell{angstrom}
       E  1.81897e+01  3.43967e+01 -3.91270e+01
       E  3.98105e+01 -3.27976e+01  4.38952e+01
       E  3.73990e+01 -2.51539e+01  3.73238e+01
3
# CELL(abcABC): 1322.94304  1322.94304  1322.94304    90.00000    90.00000    90.00000  Step:        9700  Bead:      14 positions{angstrom}  cell{angstrom}
       E  1.33716e+01 -4.75976e+01 -1.72088e+01
       E  5.72767e+01 -6.67215e+01  2.37000e+01
       E  2.33266e+01  7.96869e-01  6.48606e+00
3
# CELL(abcABC): 1322.94304  1322.94304  1322.94304    90.00000    90.00000    90.00000  Step:        9800  Bead:      14 positions{angstrom}  cell{angstrom}
       E -3.59136e+01 -5.35364e+01 -4.37318e+01
       E  3.66359e+01 -8.54982e+01 -2.33519e+01
       E  3.26302e+01 -1.82489e+01  9.32740e+00
3