3
# CELL(abcABC): 1322.94304  1322.94304  1322.94304    90.00000    90.00000    90.00000  Step:           0  Bead:       4 positions{angstrom}  cell{angstrom}
       E  0.00000e+00  0.00000e+00  0.00000e+00
       E  0.00000e+00  0.00000e+00  0.00000e+00
       E  0.00000e+00  0.00000e+00  0.00000e+00
3
# CELL(abcABC): 1322.94304  1322.94304  1322.94304    90.00000    90.00000    90.00000  Step:         100  Bead:       4 positions{angstrom}  cell{angstrom}
       E -2.69257e+01 -4.64604e+01 -9.86540e+00
       E  8.62434e+00 -1.26206e+01 -7.39031e-01
       E -9.18253e+00  6.12309e+00  2.21805e+01
3
# CELL(abcABC): 1322.94304  1322.94304  1322.94304    90.00000    90.00000    90.00000  Step:         200  Bead:       4 positions{angstrom}  cell{angstrom}
       E -2.61115e+01 -2.43651e+01 -7.35157e+00
       E  7.34201e+00 -1.13939e+00 -2.11517e+01
       E -4.38519e+00  1.90015e+01  3.06379e+01
3
# CELL(abcABC): 1322.94304  1322.94304  1322.94304    90.00000    90.00000    90.00000  Step:         300  Bead:       4 positions{angstrom}  cell{angstrom}
       E  1.61825e+01 -4.04388e+00 -4.82988e+01
       E -1.07076e+01  7.97295e+00 -1.50348e+01
       E -2.56301e+01 -1.34548e+01  3.47332e+01
3
# CELL(abcABC): 1322.94304  1322.94304  1322.94304    90.00000    90.00000    90.00000  Step:         400  Bead:       4 positions{angstrom}  cell{angstrom}
       E  4.03286e+01  2.67117e+01 -1.12021e+00
       E  9.62019e+00  1.12005e+01  2.56667e+00
       E -2.05683e+01  9.02572e+00  4.82572e+01
3
# CELL(abcABC): 1322.94304  1322.94304  1322.94304    90.00000    90.00000    90.00000  Step:         500  Bead:       4 positions{angstrom}  cell{angstrom}
       E  1.90324e+01  9.63971e+00 -1.67208e+01
       E  1.14582e+01  1.26714e+01  2.14473e+01
       E -3.13102e+01  2.26140e+01 -4.60955e+00
3
# CELL(abcABC): 1322.94304  1322.94304  1322.94304    90.00000    90.00000    90.00000  Step:         600  Bead:       4 positions{angstrom}  cell{angstrom}
       E -1.79305e+01  2.27640e+01 -5.24578e+01
       E -4.00107e+00 -4.73831e+00  3.83450e+01
       E -4.12268e+01  4.44458e-01  3.36992e+01
3
# CELL(abcABC): 1322.94304  1322.94304  1322.94304    90.00000    90.00000    90.00000  Step:         700  Bead:       4 positions{angstrom}  cell{angstrom}
       E -5.04921e+00 -5.92539e-01 -1.02013e+01
       E  4.02646e+00  6.13067e+00 -1.38361e+01
       E -3.84319e+01  1.67651e+01  4.49416e+01
3
# CELL(abcABC): 1322.94304  1322.94304  1322.94304    90.00000    90.00000    90.00000  Step:         800  Bead:       4 positions{angstrom}  cell{angstrom}
       E -1.48590e+01  1.01709e+01 -2.30799e+01
       E -3.20363e+00  1.63777e+01 -2.66698e+01
       E -6.02749e+01  3.31891e+01  5.63388e+01
3
# CELL(abcABC): 1322.94304  1322.94304  1322.94304    90.00000    90.00000    90.00000  Step:         900  Bead:       4 positions{angstrom}  cell{angstrom}
       E  5.64779e-02 -1.31226e+01  5.98198e+00
       E  3.33478e+01  4.90833e+00  3.39959e-01
       E -2.23129e+01  3.90618e+01  9.72842e+01
3
# CELL(abcABC): 1322.94304  1322.94304  1322.94304    90.00000    90.00000    90.00000  Step:        1000  Bead:       4 positions{angstrom}  cell{angstrom}
       E -4.42318e+01  1.46061e+00 -3.71307e+01
       E  2.25288e+01  1.00014e+01 -2.47936e+01
       E  1.31825e+01  9.80678e+00  6.87922e+01
3
# CELL(abcABC): 1322.94304  1322.94304  1322.94304    90.00000    90.00000    90.00000  Step:        1100  Bead:       4 positions{angstrom}  cell{angstrom}
       E -1.90237e+01  9.39601e+00 -3.09744e+01
       E  4.20250e+01 -1.63836e+01 -3.21150e+01
       E -3.13292e+01  2.02313e+01  1.78941e+01
3
# CELL(abcABC): 1322.94304  1322.94304  1322.94304    90.00000    90.00000    90.00000  Step:        1200  Bead:       4 positions{angstrom}  cell{angstrom}
       E  9.15201e+00  1.21615e+01 -6.21631e+01
       E  4.66638e+01 -3.33342e+01 -5.42864e+01
       E -3.49222e+01  5.70126e+01  2.13457e+01
3
# CELL(abcABC): 1322.94304  1322.94304  1322.94304    90.00000    90.00000    90.00000  Step:        1300  Bead:       4 positions{angstrom}  cell{angstrom}
       E  7.64804e+00  1.89854e+01 -6.31391e+01
       E  1.77787e+01 -5.75290e+01 -4.28448e+01
       E -5.15686e+01  5.77472e+01  1.44819e+01
3
# CELL(abcABC): 1322.94304  1322.94304  1322.94304    90.00000    90.00000    90.00000  Step:        1400  Bead:       4 positions{angstrom}  cell{angstrom}
       E -3.95437e+01 -3.14304e+00 -6.45537e+01
       E  1.28589e+01  9.63444e+00 -3.78469e+01
       E -6.57171e+01  6.51054e+00  2.99290e+01
3
# CELL(abcABC): 1322.94304  1322.94304  1322.94304    90.00000    90.00000    90.00000  Step:        1500  Bead:       4 positions{angstrom}  cell{angstrom}
       E -5.38112e+01  4.16721e-01 -4.80577e+01
       E  1.69149e+01  9.14843e+00  8.34297e+00
       E -4.95747e+01  8.36191e+00 -1.78101e+01
3
# CELL(abcABC): 1322.94304  1322.94304  1322.94304    90.00000    90.00000    90.00000  Step:        1600  Bead:       4 positions{angstrom}  cell{angstrom}
       E -1.09062e+01  3.98310e+01 -1.92312e+01
       E  2.26760e+01  1.40985e+01  2.71327e+01
       E -4.47434e+01  3.23277e+01 -2.10679e+01
3
# CELL(abcABC): 1322.94304  1322.94304  1322.94304    90.00000    90.00000    90.00000  Step:        1700  Bead:       4 positions{angstrom}  cell{angstrom}
       E -2.27377e+01  2.57307e+01 -2.20721e+01
       E  1.04745e+01  1.01029e+01  3.65433e+01
       E -1.94632e+01  7.08457e+01  1.90644e+01
3
# CELL(abcABC): 1322.94304  1322.94304  1322.94304    90.00000    90.00000    90.00000  Step:        1800  Bead:       4 positions{angstrom}  cell{angstrom}
       E -5.89683e+01  2.65733e+01  8.65431e+00
       E -3.49977e+01  1.27452e+01  4.49560e+01
       E -1.00025e+02  5.83514e+01  2.17901e+01
3
# CELL(abcABC): 1322.94304  1322.94304  1322.94304    90.00000    90.00000    90.00000  Step:        1900  Bead:       4 positions{angstrom}  cell{angstrom}
       E -2.57654e+01  2.74790e+01  1.80749e+01
       E -5.48704e+01 -7.59747e+00  3.01781e+00
       E -8.71414e+01  6.16238e+01  4.15111e+01
3
# CELL(abcABC): 1322.94304  1322.94304  1322.94304    90.00000    90.00000    90.00000  Step:        2000  Bead:       4 positions{angstrom}  cell{angstrom}
       E -8.49649e-01  6.75139e+00  2.65094e+01
       E -3.87052e+01  1.63442e+01  5.76707e+01
       E -4.52970e+01  5.51713e+01  1.98571e+01
3
# CELL(abcABC): 1322.94304  1322.94304  1322.94304    90.00000    90.00000    90.00000  Step:        2100  Bead:       4 positions{angstrom}  cell{angstrom}
       E -2.73560e+01 -3.90082e+01  3.84558e+01
       E -5.16273e+01 -6.87321e+00  2.46376e+01
       E -9.15988e+01  5.54294e+01  3.53794e+00
3
# CELL(abcABC): 1322.94304  1322.94304  1322.94304    90.00000    90.00000    90.00000  Step:        2200  Bead:       4 positions{angstrom}  cell{angstrom}
       E  9.34693e+00 -6.37342e+01  2.44323e+01
       E -6.70454e+01 -1.36164e+01 -2.91246e+01
       E -5.72211e+01  5.58655e+01  2.22508e+01
3
# CELL(abcABC): 1322.94304  1322.94304  1322.94304    90.00000    90.00000    90.00000  Step:        2300  Bead:       4 positions{angstrom}  cell{angstrom}
       E  8.70935e+00 -6.01340e+01  1.10189e+01
       E  9.08780e+00 -4.72562e+01 -2.68601e+01
       E -2.07153e+01  7.61135e+01  2.73997e+01
3
# CELL(abcABC): 1322.94304  1322.94304  1322.94304    90.00000    90.00000    90.00000  Step:        2400  Bead:       4 positions{angstrom}  cell{angstrom}
       E -2.29227e+01 -3.47127e+01  3.18109e+01
       E  1.80810e+01 -5.35074e+01 -1.56131e+01
       E -2.29058e+01  1.93071e+01  3.33234e+01
3
# CELL(abcABC): 1322.94304  1322.94304  1322.94304    90.00000    90.00000    90.00000  Step:        2500  Bead:       4 positions{angstrom}  cell{angstrom}
       E  5.34771e+00 -2.59414e+01  6.23514e+01
       E  1.90997e+01 -2.59232e+01 -3.28244e+01
       E -4.25099e+01 -3.21781e+01  4.70816e+01
3
# CELL(abcABC): 1322.94304  1322.94304  1322.94304    90.00000    90.00000    90.00000  Step:        2600  Bead:       4 positions{angstrom}  cell{angstrom}
       E  6.42473e+00 -4.92858e+01  8.49074e+01
       E -7.80095e+00 -4.07386e+01 -3.70434e+01
       E -2.53811e+01 -3.26856e+01  3.82281e+01
3
# CELL(abcABC): 1322.94304  1322.94304  1322.94304    90.00000    90.00000    90.00000  Step:        2700  Bead:       4 positions{angstrom}  cell{angstrom}
       E -5.02067e+00 -4.77820e+01  6.30162e+01
       E -1.73534e+01 -3.08086e+01  2.31344e+00
       E -5.68861e+01 -2.61456e+01  2.88305e+01
3
# CELL(abcABC): 1322.94304  1322.94304  1322.94304    90.00000    90.00000    90.00000  Step:        2800  Bead:       4 positions{angstrom}  cell{angstrom}
       E -1.64850e+01 -6.12754e+01  4.38821e+01
       E  1.93897e+01 -2.27103e+01 -2.53371e+01
       E -3.21027e+01  1.32902e+01  8.76015e+00
3
# CELL(abcABC): 1322.94304  1322.94304  1322.94304    90.00000    90.00000    90.00000  Step:        2900  Bead:       4 positions{angstrom}  cell{angstrom}
       E -7.01545e+01 -6.91230e+01  1.31033e+01
       E  1.91956e+01 -4.24829e+01 -2.11179e+01
       E  1.49285e+01 -1.13017e+01  3.92211e+01
3
# CELL(abcABC): 1322.94304  1322.94304  1322.94304    90.00000    90.00000    90.00000  Step:        3000  Bead:       4 positions{angstrom}  cell{angstrom}
       E -5.47802e+01 -3.55745e+01 -2.05327e+01
       E  1.47781e+01 -4.33751e+01  8.48425e+00
       E  1.39399e+01 -5.08595e+00  1.54085e+00
3
# CELL(abcABC): 1322.94304  1322.94304  1322.94304    90.00000    90.00000    90.00000  Step:        3100  Bead:       4 positions{angstrom}  cell{angstrom}
       E -5.96841e+01 -4.03954e+01  3.16624e+01
       E  3.44562e+01 -7.78467e+01  3.83870e+01
       E -4.23863e+01  1.43225e+01  3.37894e+01
3
# CELL(abcABC): 1322.94304  1322.94304  1322.94304    90.00000    90.00000    90.00000  Step:        3200  Bead:       4 positions{angstrom}  cell{angstrom}
       E -8.38396e+01 -1.74303e+01  6.93694e+01
       E  4.36164e+00 -5.30457e+01  3.86859e+00
       E  1.08264e+01  5.03329e+01  3.14701e+01
3
# CELL(abcABC): 1322.94304  1322.94304  1322.94304    90.00000    90.00000    90.00000  Step:        3300  Bead:       4 positions{angstrom}  cell{angstrom}
       E -7.95282e+01 -1.53881e+01  4.64300e+01
       E  2.00716e+00 -1.27513e+01  5.95098e+01
       E -3.66860e+01  6.17972e+01  5.85621e+01
3
# CELL(abcABC): 1322.94304  1322.94304  1322.94304    90.00000    90.00000    90.00000  Step:        3400  Bead:       4 positions{angstrom}  cell{angstrom}
       E -9.00945e+01 -1.00232e+01  6.10889e+01
       E -1.16994e+01 -3.02167e+01  3.22153e+01
       E -3.89131e+01  3.57208e+01  8.44379e+01
3
# CELL(abcABC): 1322.94304  1322.94304  1322.94304    90.00000    90.00000    90.00000  Step:        3500  Bead:       4 positions{angstrom}  cell{angstrom}
       E -1.00511e+02 -2.50864e+01  1.83717e+01
       E -4.40608e-02 -4.44639e+01  3.33074e+01
       E -7.48636e+01  5.19911e+01  7.22011e+01
3
# CELL(abcABC): 1322.94304  1322.94304  1322.94304    90.00000    90.00000    90.00000  Step:        3600  Bead:       4 positions{angstrom}  cell{angstrom}
       E -8.47191e+01 -4.50847e+01  1.72900e+01
       E -9.56591e+00 -2.35193e+01  6.23007e-01
       E -1.08692e+02  2.12580e+01  3.51220e+01
3
# CELL(abcABC): 1322.94304  1322.94304  1322.94304    90.00000    90.00000    90.00000  Step:        3700  Bead:       4 positions{angstrom}  cell{angstrom}
       E -6.30542e+01 -5.20301e+01 -4.12213e+01
       E -8.19383e+00 -1.87203e+01  2.01820e+01
       E -3.90556e+01  1.13243e+01  1.98418e+01
3
# CELL(abcABC): 1322.94304  1322.94304  1322.94304    90.00000    90.00000    90.00000  Step:        3800  Bead:       4 positions{angstrom}  cell{angstrom}
       E -6.33209e+01 -2.87990e+01 -3.17683e+01
       E -2.34314e+01 -2.86878e+01 -1.65892e+01
       E -3.23800e+01 -9.54721e+00 -1.65207e+00
3
# CELL(abcABC): 1322.94304  1322.94304  1322.94304    90.00000    90.00000    90.00000  Step:        3900  Bead:       4 positions{angstrom}  cell{angstrom}
       E -5.41551e+01 -3.32763e+01 -9.91517e+00
       E -4.94745e+01 -2.03785e+01 -4.37600e+01
       E -1.17514e+01 -1.23024e+01  1.01428e+01
3
# CELL(abcABC): 1322.94304  1322.94304  1322.94304    90.00000    90.00000    90.00000  Step:        4000  Bead:       4 positions{angstrom}  cell{angstrom}
       E -4.06415e+01 -5.49676e+00  1.33801e+01
       E -8.90501e+01 -1.31247e+01 -6.47453e+00
       E -2.66237e+01  1.73390e+00 -4.84246e+00
3
# CELL(abcABC): 1322.94304  1322.94304  1322.94304    90.00000    90.00000    90.00000  Step:        4100  Bead:       4 positions{angstrom}  cell{angstrom}
       E -6.28258e+01  2.11534e+01 -4.82914e+01
       E -6.43496e+01  3.60443e+01 -1.30574e+01
       E -5.85502e+01  5.23012e+01  2.75101e+01
3
# CELL(abcABC): 1322.94304  1322.94304  1322.94304    90.00000    90.00000    90.00000  Step:        4200  Bead:       4 positions{angstrom}  cell{angstrom}
       E -1.00086e+01  2.05886e+01 -3.02616e+01
       E -7.91868e+01  2.72923e+01 -1.77728e+01
       E -6.49467e+01  2.45243e+01  1.13875e+01
3
# CELL(abcABC): 1322.94304  1322.94304  1322.94304    90.00000    90.00000    90.00000  Step:        4300  Bead:       4 positions{angstrom}  cell{angstrom}
       E -1.17492e+01  6.45899e+00 -6.29513e+00
       E -6.74336e+01 -5.60808e+00 -2.37184e+01
       E -5.90769e+01 -1.50034e+01  2.86239e+01
3
# CELL(abcABC): 1322.94304  1322.94304  1322.94304    90.00000    90.00000    90.00000  Step:        4400  Bead:       4 positions{angstrom}  cell{angstrom}
       E -1.40259e+01  2.32367e+01 -1.36155e+01
       E -8.33032e+01  5.57051e+01 -4.28430e+01
       E -5.71344e+01  5.75454e+00  1.54241e+01
3
# CELL(abcABC): 1322.94304  1322.94304  1322.94304    90.00000    90.00000    90.00000  Step:        4500  Bead:       4 positions{angstrom}  cell{angstrom}
       E -3.23724e+01  3.62001e+01  7.27133e+00
       E -6.10989e+01  9.34014e+01 -3.32942e+01
       E -4.09546e+01 -1.18082e+01  4.02413e+00
3
# CELL(abcABC): 1322.94304  1322.94304  1322.94304    90.00000    90.00000    90.00000  Step:        4600  Bead:       4 positions{angstrom}  cell{angstrom}
       E -1.05641e+01  4.05009e+01 -4.56682e+00
       E -9.41352e+01  1.13744e+01 -2.78067e+01
       E -4.46347e+01  2.55907e+00  1.45801e+01
3
# CELL(abcABC): 1322.94304  1322.94304  1322.94304    90.00000    90.00000    90.00000  Step:        4700  Bead:       4 positions{angstrom}  cell{angstrom}
       E  1.58123e+01  3.98984e+01 -8.37170e+00
       E -6.97003e+01  6.07888e+00 -4.39298e+01
       E -3.59122e+01  4.59992e+01 -4.86529e+00
3
# CELL(abcABC): 1322.94304  1322.94304  1322.94304    90.00000    90.00000    90.00000  Step:        4800  Bead:       4 positions{angstrom}  cell{angstrom}
       E  3.21628e+01  3.16924e+01  2.09358e+01
       E -6.95155e+01  3.19716e+01 -6.30437e+01
       E  1.73347e+01  1.43401e+01 -6.51769e+01
3
# CELL(abcABC): 1322.94304  1322.94304  1322.94304    90.00000    90.00000    90.00000  Step:        4900  Bead:       4 positions{angstrom}  cell{angstrom}
       E  5.64772e+01  6.17303e+00  1.47065e+01
       E -1.04845e+02  1.72884e+00 -5.90528e+01
       E -7.89865e+00  2.99651e+01 -6.65357e+01
3
# CELL(abcABC): 1322.94304  1322.94304  1322.94304    90.00000    90.00000    90.00000  Step:        5000  Bead:       4 positions{angstrom}  cell{angstrom}
       E  1.68629e+01 -1.24388e+01  5.07445e+01
       E -2.99960e+01 -2.04044e+01 -4.17072e+01
       E -2.63654e+01  5.39753e+00 -6.82192e+01
3
# CELL(abcABC): 1322.94304  1322.94304  1322.94304    90.00000    90.00000    90.00000  Step:        5100  Bead:       4 positions{angstrom}  cell{angstrom}
       E -9.55129e+00 -6.97019e+00  4.81302e+01
       E -3.86776e+01  4.24887e+00  2.18462e+00
       E  1.49064e+01 -2.48484e+01 -1.83804e+01
3
# CELL(abcABC): 1322.94304  1322.94304  1322.94304    90.00000    90.00000    90.00000  Step:        5200  Bead:       4 positions{angstrom}  cell{angstrom}
       E  2.35764e+01 -8.11548e-01 -4.75483e+00
       E  6.87995e+00  4.87360e+01 -1.40543e+01
       E -3.02773e+00  2.27772e+01 -5.84420e+00
3
# CELL(abcABC): 1322.94304  1322.94304  1322.94304    90.00000    90.00000    90.00000  Step:        5300  Bead:       4 positions{angstrom}  cell{angstrom}
       E  1.64860e+00 -4.05140e+00  4.37568e+01
       E -5.64222e+00  4.77825e+01 -6.02780e+01
       E -7.00597e+00  2.72152e+01  7.35324e+00
3
# CELL(abcABC): 1322.94304  1322.94304  1322.94304    90.00000    90.00000    90.00000  Step:        5400  Bead:       4 positions{angstrom}  cell{angstrom}
       E -3.29970e+00  8.06048e+00  7.19750e+01
       E -2.07504e+01 -2.52123e+00 -3.86528e+01
       E -2.55513e+01  4.91013e+01  2.91893e+01
3
# CELL(abcABC): 1322.94304  1322.94304  1322.94304    90.00000    90.00000    90.00000  Step:        5500  Bead:       4 positions{angstrom}  cell{angstrom}
       E -2.36908e+01  3.23655e+01  6.74832e+01
       E -2.65853e+01  9.99374e+00 -1.70217e+01
       E -1.85829e+01  7.71938e+00  1.29076e+01
3
# CELL(abcABC): 1322.94304  1322.94304  1322.94304    90.00000    90.00000    90.00000  Step:        5600  Bead:       4 positions{angstrom}  cell{angstrom}
       E -1.28947e+00  2.94222e+01  3.72003e+01
       E  5.57284e-01  3.10070e+01 -1.92060e+01
       E -1.66803e+01  1.32474e+01  1.18588e+01
3
# CELL(abcABC): 1322.94304  1322.94304  1322.94304    90.00000    90.00000    90.00000  Step:        5700  Bead:       4 positions{angstrom}  cell{angstrom}
       E -1.63691e+01  2.29337e+01  9.41086e+00
       E -1.11103e+01  3.26668e+01 -5.55182e+00
       E -4.13923e+01  3.02087e+01 -3.99094e+00
3
# CELL(abcABC): 1322.94304  1322.94304  1322.94304    90.00000    90.00000    90.00000  Step:        5800  Bead:       4 positions{angstrom}  cell{angstrom}
       E -4.20974e+01 -1.25033e+01  2.10692e+01
       E -3.34187e+01  2.30976e+01  1.92567e+01
       E  2.72860e+01  5.52669e+01  5.25752e+00
3
# CELL(abcABC): 1322.94304  1322.94304  1322.94304    90.00000    90.00000    90.00000  Step:        5900  Bead:       4 positions{angstrom}  cell{angstrom}
       E -8.78148e+00 -4.67945e+01  5.25731e+00
       E -5.57274e+01  1.26442e+01 -3.02711e+01
       E -1.56487e+01  2.90979e+01 -2.67911e+01
3
# CELL(abcABC): 1322.94304  1322.94304  1322.94304    90.00000    90.00000    90.00000  Step:        6000  Bead:       4 positions{angstrom}  cell{angstrom}
       E  1.30818e+01 -5.74074e+01 -1.62386e+01
       E -3.42237e+01  2.79301e+01 -2.19611e+01
       E  5.07188e+01 -4.11238e+00 -2.15370e+01
3
# CELL(abcABC): 1322.94304  1322.94304  1322.94304    90.00000    90.00000    90.00000  Step:        6100  Bead:       4 positions{angstrom}  cell{angstrom}
       E  4.41065e+01 -5.03718e+01 -4.87896e+01
       E -2.38934e+00 -1.15269e+01  3.12422e+01
       E  3.14837e+01  3.04571e+01 -5.08291e+01
3
# CELL(abcABC): 1322.94304  1322.94304  1322.94304    90.00000    90.00000    90.00000  Step:        6200  Bead:       4 positions{angstrom}  cell{angstrom}
       E  4.38297e+01 -4.84449e+01 -6.03854e+01
       E  2.16125e+01 -4.64946e+01  1.81254e+01
       E  5.45514e+01  1.27055e+01 -7.02503e+01
3
# CELL(abcABC): 1322.94304  1322.94304  1322.94304    90.00000    90.00000    90.00000  Step:        6300  Bead:       4 positions{angstrom}  cell{angstrom}
       E  4.96514e+01 -4.22863e+01 -6.30345e+01
       E  2.22450e+01 -6.97298e+01 -1.08863e+01
       E  4.44216e+01  1.41919e+01 -2.42831e+01
3
# CELL(abcABC): 1322.94304  1322.94304  1322.94304    90.00000    90.00000    90.00000  Step:        6400  Bead:       4 positions{angstrom}  cell{angstrom}
       E  5.54723e+00 -7.30353e+01 -6.48345e+01
       E  5.54270e+01 -6.51386e+01 -1.97983e+01
       E  6.30278e+01 -2.44267e+01 -1.98584e+00
3
# CELL(abcABC): 1322.94304  1322.94304  1322.94304    90.00000    90.00000    90.00000  Step:        6500  Bead:       4 positions{angstrom}  cell{angstrom}
       E -2.36038e+01 -1.02930e+02 -9.39991e+01
       E  4.63667e+01 -3.03287e+01 -1.29081e+01
       E -4.14507e-01 -2.72617e+01 -2.57560e+01
3
# CELL(abcABC): 1322.94304  1322.94304  1322.94304    90.00000    90.00000    90.00000  Step:        6600  Bead:       4 positions{angstrom}  cell{angstrom}
       E -1.22256e+01 -9.38813e+01 -1.14534e+02
       E  1.46023e-01 -2.64052e+01 -1.18137e+01
       E  1.53715e+01  6.83212e+00  2.41625e+01
3
# CELL(abcABC): 1322.94304  1322.94304  1322.94304    90.00000    90.00000    90.00000  Step:        6700  Bead:       4 positions{angstrom}  cell{angstrom}
       E -3.58350e+00 -6.75709e+01 -1.04445e+02
       E -1.74459e+01 -6.16080e+01  7.95538e+00
       E -9.31261e-01  1.03387e+01 -3.27902e+01
3
# CELL(abcABC): 1322.94304  1322.94304  1322.94304    90.00000    90.00000    90.00000  Step:        6800  Bead:       4 positions{angstrom}  cell{angstrom}
       E -9.10756e+00 -4.78845e+01 -5.85580e+01
       E  1.65209e+01 -6.22971e+01 -1.65245e-01
       E -1.21418e+01  4.50901e+01 -7.01746e+00
3
# CELL(abcABC): 1322.94304  1322.94304  1322.94304    90.00000    90.00000    90.00000  Step:        6900  Bead:       4 positions{angstrom}  cell{angstrom}
       E -4.20355e+00 -5.99231e+01 -5.97180e+01
       E  1.60494e+01 -3.06359e+01  6.94213e+00
       E -1.97128e+01  3.71466e+01  3.98916e+00
3
# CELL(abcABC): 1322.94304  1322.94304  1322.94304    90.00000    90.00000    90.00000  Step:        7000  Bead:       4 positions{angstrom}  cell{angstrom}
       E -4.67772e+01 -2.31163e+01 -4.12127e+01
       E  1.20288e+01 -3.03893e+01  3.98850e+00
       E  2.81137e+01  6.77099e+01  1.81488e+01
3
# CELL(abcABC): 1322.94304  1322.94304  1322.94304    90.00000    90.00000    90.00000  Step:        7100  Bead:       4 positions{angstrom}  cell{angstrom}
       E -1.71713e+01 -7.41071e+00 -2.96235e+01
       E -2.83486e+01  1.63479e+00  1.61495e+01
       E -9.05987e+00  5.90083e+01  3.10813e+01
3
# CELL(abcABC): 1322.94304  1322.94304  1322.94304    90.00000    90.00000    90.00000  Step:        7200  Bead:       4 positions{angstrom}  cell{angstrom}
       E -6.87303e+00 -3.57159e+01 -3.92549e+01
       E -8.36959e+00  2.06514e+01  2.91250e+01
       E  3.98928e+01  9.27891e+01  1.56921e+01
3
# CELL(abcABC): 1322.94304  1322.94304  1322.94304    90.00000    90.00000    90.00000  Step:        7300  Bead:       4 positions{angstrom}  cell{angstrom}
       E -7.92602e+00 -3.04435e+01 -3.90232e+01
       E  3.51009e+01  2.08334e+01  2.55198e+01
       E  3.37050e+01  4.87231e+01  2.17700e+01
3
# CELL(abcABC): 1322.94304  1322.94304  1322.94304    90.00000    90.00000    90.00000  Step:        7400  Bead:       4 positions{angstrom}  cell{angstrom}
       E  5.55234e+00 -2.60224e+01  6.59029e+00
       E  1.15888e+01 -8.66439e+00  3.69541e+01
       E  3.35909e+01  7.30372e+01 -1.75224e+01
3
# CELL(abcABC): 1322.94304  1322.94304  1322.94304    90.00000    90.00000    90.00000  Step:        7500  Bead:       4 positions{angstrom}  cell{angstrom}
       E -2.28366e+01 -3.95760e+01 -1.43592e+01
       E -2.29510e+00 -2.89933e+01 -1.99696e+01
       E  7.57855e+01  7.27075e+01  2.83119e+00
3
# CELL(abcABC): 1322.94304  1322.94304  1322.94304    90.00000    90.00000    90.00000  Step:        7600  Bead:       4 positions{angstrom}  cell{angstrom}
       E -2.43723e+01 -4.14313e+01 -1.90370e+01
       E  4.29996e+00 -5.04933e+01 -4.91883e+00
       E  5.17117e+01  4.15632e+01 -4.10031e+01
3
# CELL(abcABC): 1322.94304  1322.94304  1322.94304    90.00000    90.00000    90.00000  Step:        7700  Bead:       4 positions{angstrom}  cell{angstrom}
       E  1.74547e+01 -5.06572e+01 -2.22107e+01
       E  2.38581e+01 -4.67111e+01 -2.13730e+01
       E  3.87951e+01 -1.18333e+01 -3.15808e+01
3
# CELL(abcABC): 1322.94304  1322.94304  1322.94304    90.00000    90.00000    90.00000  Step:        7800  Bead:       4 positions{angstrom}  cell{angstrom}
       E  3.57686e+01 -1.64502e+01 -4.92749e+01
       E  2.19873e+01 -2.23837e+01 -2.77163e+01
       E  1.94403e+01 -4.33862e+00 -5.42451e+01
3
# CELL(abcABC): 1322.94304  1322.94304  1322.94304    90.00000    90.00000    90.00000  Step:        7900  Bead:       4 positions{angstrom}  cell{angstrom}
       E  5.64429e+01  8.17906e+00 -5.58790e+01
       E  5.32927e+01 -7.80377e+00 -2.93375e+01
       E  3.45851e+01  3.88466e+01 -2.77227e+01
3
# CELL(abcABC): 1322.94304  1322.94304  1322.94304    90.00000    90.00000    90.00000  Step:        8000  Bead:       4 positions{angstrom}  cell{angstrom}
       E  1.04211e+01  7.87186e+00 -4.22141e+01
       E  4.47651e+01 -1.83206e+01 -4.27933e+01
       E  5.13437e-01  3.88520e+01 -1.17973e+01
3
# CELL(abcABC): 1322.94304  1322.94304  1322.94304    90.00000    90.00000    90.00000  Step:        8100  Bead:       4 positions{angstrom}  cell{angstrom}
       E  1.90875e+01  5.20937e-01 -2.97851e+01
       E  2.75247e+01  2.32074e+01 -2.57747e+01
       E -6.78212e+00 -1.76574e+01  1.03631e+01
3
# CELL(abcABC): 1322.94304  1322.94304  1322.94304    90.00000    90.00000    90.00000  Step:        8200  Bead:       4 positions{angstrom}  cell{angstrom}
       E  3.19524e+01  1.40637e+01 -6.48378e+01
       E  4.07039e+01  4.42392e+01  9.28725e+00
       E  2.03578e+01 -3.75445e+01  3.25832e+01
3
# CELL(abcABC): 1322.94304  1322.94304  1322.94304    90.00000    90.00000    90.00000  Step:        8300  Bead:       4 positions{angstrom}  cell{angstrom}
       E  2.04691e+01 -8.50539e+00 -6.08742e+01
       E  3.81431e+01  1.95006e+01  4.63003e+01
       E -1.95556e+01 -3.80716e+01  4.51410e+01
3
# CELL(abcABC): 1322.94304  1322.94304  1322.94304    90.00000    90.00000    90.00000  Step:        8400  Bead:       4 positions{angstrom}  cell{angstrom}
       E  4.24868e+01  1.46815e+01 -9.32837e+00
       E  2.20540e+01  1.36785e+01  4.06363e+01
       E  1.34676e+01 -2.06101e+00  2.02255e+01
3
# CELL(abcABC): 1322.94304  1322.94304  1322.94304    90.00000    90.00000    90.00000  Step:        8500  Bead:       4 positions{angstrom}  cell{angstrom}
       E -9.38521e+00  5.13718e+00 -2.46549e+01
       E  7.64997e+01  1.59627e+01  3.34060e+01
       E  4.35317e+01 -2.98670e+01  2.52609e+01
3
# CELL(abcABC): 1322.94304  1322.94304  1322.94304    90.00000    90.00000    90.00000  Step:        8600  Bead:       4 positions{angstrom}  cell{angstrom}
       E -4.99701e+01  8.90005e+00 -1.29284e+01
       E  4.81087e+01  4.10985e+01  3.44318e+00
       E  4.34510e+01 -2.07506e+01  4.94346e+01
3
# CELL(abcABC): 1322.94304  1322.94304  1322.94304    90.00000    90.00000    90.00000  Step:        8700  Bead:       4 positions{angstrom}  cell{angstrom}
       E -1.30007e+01  2.24391e+01 -2.71127e+01
       E  5.81906e+01 -1.59178e+01  7.77024e+00
       E  2.51352e+01 -4.29388e+01  3.03162e+01
3
# CELL(abcABC): 1322.94304  1322.94304  1322.94304    90.00000    90.00000    90.00000  Step:        8800  Bead:       4 positions{angstrom}  cell{angstrom}
       E -1.01589e+01  3.59001e+01  8.47042e+00
       E  1.07519e+01 -1.75455e+00 -1.64920e+01
       E  3.26754e+01 -8.07155e+01  5.86481e+01
3
# CELL(abcABC): 1322.94304  1322.94304  1322.94304    90.00000    90.00000    90.00000  Step:        8900  Bead:       4 positions{angstrom}  cell{angstrom}
       E -1.24663e+01  3.18821e+01  9.27052e+00
       E -2.07558e+01 -3.07911e+01  5.45391e+01
       E  1.35485e+01 -7.13001e+01  3.15122e+01
3
# CELL(abcABC): 1322.94304  1322.94304  1322.94304    90.00000    90.00000    90.00000  Step:        9000  Bead:       4 positions{angstrom}  cell{angstrom}
       E -1.46094e+01  2.55121e+01  8.16202e+00
       E -4.71311e+01 -1.90561e+01  3.31348e+01
       E  8.25355e+00 -8.24573e+01 -3.23787e-01
3
# CELL(abcABC): 1322.94304  1322.94304  1322.94304    90.00000    90.00000    90.00000  Step:        9100  Bead:       4 positions{angstrom}  cell{angstrom}
       E  2.11368e+01  2.66788e+01  3.18360e+01
       E -5.15347e+01 -1.96311e+01  3.82241e+01
       E -8.18854e+00 -7.32094e+01 -2.22381e+01
3
# CELL(abcABC): 1322.94304  1322.94304  1322.94304    90.00000    90.00000    90.00000  Step:        9200  Bead:       4 positions{angstrom}  cell{angstrom}
       E -6.89775e+00  3.48906e+01  1.41636e+01
       E  1.25402e+01  2.83870e+00  4.39166e+01
       E -4.61732e+00 -2.61659e+01 -5.93944e+00
3
# CELL(abcABC): 1322.94304  1322.94304  1322.94304    90.00000    90.00000    90.00000  Step:        9300  Bead:       4 positions{angstrom}  cell{angstrom}
       E  1.17447e+01  4.20904e+01 -4.73794e+01
       E -7.97103e-02 -4.17575e+01  1.93219e+01
       E  4.09636e+01 -3.00542e+01 -8.24771e+00
3
# CELL(abcABC): 1322.94304  1322.94304  1322.94304    90.00000    90.00000    90.00000  Step:        9400  Bead:       4 positions{angstrom}  cell{angstrom}
       E  2.19249e+01  5.12973e+01 -2.78760e+01
       E  2.40335e+01 -1.87640e+01  5.19853e+00
       E  1.94461e+01 -2.15209e+01  1.77380e+01
3
# CELL(abcABC): 1322.94304  1322.94304  1322.94304    90.00000    90.00000    90.00000  Step:        9500  Bead:       4 positions{angstrom}  cell{angstrom}
       E  3.82034e+01  5.33420e+00 -2.31748e+01
       E  4.72175e+01  9.52824e+00  1.24959e+01
       E  5.13740e+00 -4.15663e+01  1.50671e+01
3
# CELL(abcABC): 1322.94304  1322.94304  1322.94304    90.00000    90.00000    90.00000  Step:        9600  Bead:       4 positions{angstrom}  cell{angstrom}
       E -2.08001e+01 -7.19022e-01 -5.17433e+01
       E  5.85882e+01 -5.62934e+01  3.80237e+01
       E -2.12153e+01 -2.02346e+01 -9.21559e-01
3
# CELL(abcABC): 1322.94304  1322.94304  1322.94304    90.00000    90.00000    90.00000  Step:        9700  Bead:       4 positions{angstrom}  cell{angstrom}
       E -7.14134e+01 -4.38977e+00 -9.29575e+01
       E  1.98753e+01 -5.26483e+01  5.64512e+01
       E -3.91768e+00 -3.06047e+01  1.08622e+01
3
# CELL(abcABC): 1322.94304  1322.94304  1322.94304    90.00000    90.00000    90.00000  Step:        9800  Bead:       4 positions{angstrom}  cell{angstrom}
       E -1.47950e+01 -4.01043e+01 -4.65720e+01
       E  4.78384e+01 -8.49121e+01 -6.38474e+00
       E -5.99864e+00 -3.10129e+01  3.36464e+01
3