3
# CELL(abcABC): 1322.94304  1322.94304  1322.94304    90.00000    90.00000    90.00000  Step:           0  Bead:       6 positions{angstrom}  cell{angstrom}
       E  0.00000e+00  0.00000e+00  0.00000e+00
       E  0.00000e+00  0.00000e+00  0.00000e+00
       E  0.00000e+00  0.00000e+00  0.00000e+00
3
# CELL(abcABC): 1322.94304  1322.94304  1322.94304    90.00000    90.00000    90.00000  Step:         100  Bead:       6 positions{angstrom}  cell{angstrom}
       E -2.46621e+01 -2.71477e+01  1.15605e+01
       E -1.62476e+01  2.88257e+00 -1.33192e+01
       E -6.94654e+00 -1.71361e+00 -1.36818e+00
3
# CELL(abcABC): 1322.94304  1322.94304  1322.94304    90.00000    90.00000    90.00000  Step:         200  Bead:       6 positions{angstrom}  cell{angstrom}
       E -1.72780e+01 -2.90988e+01 -1.01423e+01
       E  2.27498e+01  5.25126e+00 -2.55902e+01
       E -2.85140e+01  8.04604e+00  2.10694e+01
3
# CELL(abcABC): 1322.94304  1322.94304  1322.94304    90.00000    90.00000    90.00000  Step:         300  Bead:       6 positions{angstrom}  cell{angstrom}
       E -7.38040e+00 -2.83846e+01 -3.02449e+01
       E -2.02494e+01  1.38675e+00 -3.42189e+01
       E -2.13590e+01  2.81880e+01  2.28525e+01
3
# CELL(abcABC): 1322.94304  1322.94304  1322.94304    90.00000    90.00000    90.00000  Step:         400  Bead:       6 positions{angstrom}  cell{angstrom}
       E  1.70044e+01  1.24841e+01  1.29433e+01
       E  1.73694e+00  1.29482e+01 -1.36330e+01
       E  3.84671e-01  3.98447e+01  2.96148e+01
3
# CELL(abcABC): 1322.94304  1322.94304  1322.94304    90.00000    90.00000    90.00000  Step:         500  Bead:       6 positions{angstrom}  cell{angstrom}
       E  6.24060e+00  1.73865e+01 -2.57893e+01
       E -2.75672e+01 -1.44588e+00  1.27222e+01
       E -2.57218e+01  2.55064e+01  5.26728e+00
3
# CELL(abcABC): 1322.94304  1322.94304  1322.94304    90.00000    90.00000    90.00000  Step:         600  Bead:       6 positions{angstrom}  cell{angstrom}
       E -2.83675e+01  2.52597e+01 -3.97939e+01
       E -2.76936e-01 -2.35125e+01  3.83061e+01
       E -1.81669e+01 -2.21716e+01  1.06695e+01
3
# CELL(abcABC): 1322.94304  1322.94304  1322.94304    90.00000    90.00000    90.00000  Step:         700  Bead:       6 positions{angstrom}  cell{angstrom}
       E  2.05707e+01  1.54711e+01 -3.06272e+01
       E -3.64012e-01  2.12414e+01  1.56944e+01
       E -2.07432e+01  6.53509e+00  3.25754e+01
3
# CELL(abcABC): 1322.94304  1322.94304  1322.94304    90.00000    90.00000    90.00000  Step:         800  Bead:       6 positions{angstrom}  cell{angstrom}
       E -2.99481e+01  1.84218e+01 -2.70833e+01
       E  2.46576e+01  4.81540e+01 -2.52115e+01
       E -9.31237e+01  2.17503e+01  5.73163e+01
3
# CELL(abcABC): 1322.94304  1322.94304  1322.94304    90.00000    90.00000    90.00000  Step:         900  Bead:       6 positions{angstrom}  cell{angstrom}
       E  3.33871e+00 -4.25198e+01  1.24256e+01
       E  2.61601e+01  1.01185e+00 -2.93964e+01
       E -2.44405e+01  3.83416e+01  7.94215e+01
3
# CELL(abcABC): 1322.94304  1322.94304  1322.94304    90.00000    90.00000    90.00000  Step:        1000  Bead:       6 positions{angstrom}  cell{angstrom}
       E -1.40084e+01  1.20052e+01 -1.55790e+01
       E  2.19041e+01 -3.24725e-01 -1.35962e+01
       E -5.94226e+00 -1.18450e-01  6.00724e+01
3
# CELL(abcABC): 1322.94304  1322.94304  1322.94304    90.00000    90.00000    90.00000  Step:        1100  Bead:       6 positions{angstrom}  cell{angstrom}
       E  2.06332e+00 -1.53574e+01 -3.79552e+01
       E  4.84717e+01 -1.86546e+01 -4.20000e+01
       E -3.02009e+01  6.32948e+00  1.25966e+01
3
# CELL(abcABC): 1322.94304  1322.94304  1322.94304    90.00000    90.00000    90.00000  Step:        1200  Bead:       6 positions{angstrom}  cell{angstrom}
       E  2.26732e+01  1.87547e+00 -5.29084e+01
       E  3.00140e+01 -3.28949e+01 -7.92304e+01
       E -4.60227e+01  3.92779e+01  2.80754e+01
3
# CELL(abcABC): 1322.94304  1322.94304  1322.94304    90.00000    90.00000    90.00000  Step:        1300  Bead:       6 positions{angstrom}  cell{angstrom}
       E -4.07455e+00 -2.69739e+01 -5.57587e+01
       E -3.61325e+00 -8.40983e+01 -5.24987e+01
       E -5.28087e+01  5.13802e+01  1.61666e+01
3
# CELL(abcABC): 1322.94304  1322.94304  1322.94304    90.00000    90.00000    90.00000  Step:        1400  Bead:       6 positions{angstrom}  cell{angstrom}
       E -3.17338e+01 -2.94460e+00 -5.92829e+01
       E  4.10889e+00 -5.73834e+00 -1.39483e+01
       E -5.33917e+01  1.91661e+01  1.49359e+01
3
# CELL(abcABC): 1322.94304  1322.94304  1322.94304    90.00000    90.00000    90.00000  Step:        1500  Bead:       6 positions{angstrom}  cell{angstrom}
       E -4.10259e+01  2.56282e+01 -8.13063e+01
       E  2.41402e+01  1.12542e+01  1.31835e+01
       E -6.58076e+01  2.81996e+01 -5.99797e+00
3
# CELL(abcABC): 1322.94304  1322.94304  1322.94304    90.00000    90.00000    90.00000  Step:        1600  Bead:       6 positions{angstrom}  cell{angstrom}
       E -2.30723e+01  3.98125e+01 -3.98982e+01
       E  1.46978e+01  2.89211e+01  3.62323e+01
       E -7.06705e+01  3.57478e+01 -6.40509e+00
3
# CELL(abcABC): 1322.94304  1322.94304  1322.94304    90.00000    90.00000    90.00000  Step:        1700  Bead:       6 positions{angstrom}  cell{angstrom}
       E -1.26982e+01  3.98249e+01 -2.51766e+01
       E  6.17938e+00  3.64400e+01  2.67713e+01
       E -3.92183e+01  5.75690e+01  1.27691e+00
3
# CELL(abcABC): 1322.94304  1322.94304  1322.94304    90.00000    90.00000    90.00000  Step:        1800  Bead:       6 positions{angstrom}  cell{angstrom}
       E -1.03009e+01  3.33835e+01  1.70244e+00
       E -8.79965e+00  4.21441e+01  1.67544e+01
       E -6.04599e+01  5.11468e+01  5.09128e+01
3
# CELL(abcABC): 1322.94304  1322.94304  1322.94304    90.00000    90.00000    90.00000  Step:        1900  Bead:       6 positions{angstrom}  cell{angstrom}
       E -1.00734e+01  3.94459e+01  1.05760e+01
       E -6.84390e+01  1.80765e+01  3.79673e+01
       E -7.46645e+01  5.50573e+01  2.33393e+01
3
# CELL(abcABC): 1322.94304  1322.94304  1322.94304    90.00000    90.00000    90.00000  Step:        2000  Bead:       6 positions{angstrom}  cell{angstrom}
       E  1.26529e+00 -1.40365e+01  2.64108e+01
       E -6.48360e+01  3.08369e+01  4.07856e+01
       E -7.85415e+01  4.68113e+01  7.97685e-01
3
# CELL(abcABC): 1322.94304  1322.94304  1322.94304    90.00000    90.00000    90.00000  Step:        2100  Bead:       6 positions{angstrom}  cell{angstrom}
       E -1.68893e+01 -2.77839e+01  4.86052e+01
       E -3.40269e+01  1.66912e+01  1.59139e+01
       E -6.36944e+01  3.53057e+01 -6.52133e+00
3
# CELL(abcABC): 1322.94304  1322.94304  1322.94304    90.00000    90.00000    90.00000  Step:        2200  Bead:       6 positions{angstrom}  cell{angstrom}
       E -1.72545e+01 -5.05630e+01  4.67634e+01
       E -3.89730e+01 -1.88610e+01 -4.07444e+01
       E -3.97350e+01  8.10762e+01  2.85783e+01
3
# CELL(abcABC): 1322.94304  1322.94304  1322.94304    90.00000    90.00000    90.00000  Step:        2300  Bead:       6 positions{angstrom}  cell{angstrom}
       E -8.80934e+00 -8.01367e+01  3.55144e+01
       E -1.48962e+01 -2.91063e+01 -3.31532e+01
       E -4.51454e+01  7.17863e+01  3.32298e+01
3
# CELL(abcABC): 1322.94304  1322.94304  1322.94304    90.00000    90.00000    90.00000  Step:        2400  Bead:       6 positions{angstrom}  cell{angstrom}
       E -1.95247e+01 -5.28543e+01  4.07676e+01
       E  4.08513e+01 -3.29935e+01 -2.11359e+01
       E -2.04267e+01  4.40891e+01  3.32619e+01
3
# CELL(abcABC): 1322.94304  1322.94304  1322.94304    90.00000    90.00000    90.00000  Step:        2500  Bead:       6 positions{angstrom}  cell{angstrom}
       E -6.92620e+00 -2.49588e+01  5.24319e+01
       E -1.32906e+01 -9.48342e+00 -3.77865e+01
       E -2.76934e+01  1.89789e+00  7.34948e+01
3
# CELL(abcABC): 1322.94304  1322.94304  1322.94304    90.00000    90.00000    90.00000  Step:        2600  Bead:       6 positions{angstrom}  cell{angstrom}
       E  1.57956e+01 -5.48073e+01  7.50922e+01
       E -2.72874e+01 -4.32548e+01 -5.73178e+01
       E -1.26641e+01 -1.00236e+01  5.81412e+01
3
# CELL(abcABC): 1322.94304  1322.94304  1322.94304    90.00000    90.00000    90.00000  Step:        2700  Bead:       6 positions{angstrom}  cell{angstrom}
       E  6.98159e+00 -4.62966e+01  8.91328e+01
       E -4.38846e+01 -3.66750e+01 -1.81821e+01
       E -2.11264e+01 -2.51657e+01  2.33509e+01
3
# CELL(abcABC): 1322.94304  1322.94304  1322.94304    90.00000    90.00000    90.00000  Step:        2800  Bead:       6 positions{angstrom}  cell{angstrom}
       E -4.48049e+01 -3.79210e+01  1.71496e+01
       E  1.01132e+01 -3.46026e+01 -2.83618e+01
       E -7.59744e+00 -1.44434e+01  2.98441e+01
3
# CELL(abcABC): 1322.94304  1322.94304  1322.94304    90.00000    90.00000    90.00000  Step:        2900  Bead:       6 positions{angstrom}  cell{angstrom}
       E -5.31557e+01 -6.79137e+01 -1.32781e+01
       E  1.39166e+01 -3.41620e+01 -1.18493e+01
       E  2.06523e+00 -3.86632e+00  2.41743e+01
3
# CELL(abcABC): 1322.94304  1322.94304  1322.94304    90.00000    90.00000    90.00000  Step:        3000  Bead:       6 positions{angstrom}  cell{angstrom}
       E -5.14614e+01 -4.63234e+01 -3.39908e+01
       E  8.27504e+00 -4.68829e+01  4.99698e+00
       E  1.01049e+01  1.83776e+01  1.30255e+01
3
# CELL(abcABC): 1322.94304  1322.94304  1322.94304    90.00000    90.00000    90.00000  Step:        3100  Bead:       6 positions{angstrom}  cell{angstrom}
       E -4.97904e+01 -5.17143e+01  1.76183e+01
       E  2.00319e+01 -6.12840e+01  2.98190e+01
       E -2.21220e+01  2.85664e+01  1.61834e+01
3
# CELL(abcABC): 1322.94304  1322.94304  1322.94304    90.00000    90.00000    90.00000  Step:        3200  Bead:       6 positions{angstrom}  cell{angstrom}
       E -6.64258e+01  6.76007e+00  4.64112e+01
       E -9.74647e+00 -4.80813e+01  2.69631e+01
       E -1.04844e+01  4.69487e+01  9.10926e+00
3
# CELL(abcABC): 1322.94304  1322.94304  1322.94304    90.00000    90.00000    90.00000  Step:        3300  Bead:       6 positions{angstrom}  cell{angstrom}
       E -6.07658e+01 -1.23123e+01  4.54942e+01
       E -6.59292e+00 -1.28199e+01  4.86367e+01
       E -3.84811e+00  4.79884e+01  4.24167e+01
3
# CELL(abcABC): 1322.94304  1322.94304  1322.94304    90.00000    90.00000    90.00000  Step:        3400  Bead:       6 positions{angstrom}  cell{angstrom}
       E -7.19604e+01 -1.71766e+01  3.52744e+01
       E -1.59403e+01 -4.81920e+01  5.03001e+01
       E -5.96872e+01  4.21333e+01  6.01868e+01
3
# CELL(abcABC): 1322.94304  1322.94304  1322.94304    90.00000    90.00000    90.00000  Step:        3500  Bead:       6 positions{angstrom}  cell{angstrom}
       E -8.12103e+01 -1.41677e+01  3.16927e+01
       E  3.09364e+01 -4.01085e+01  4.24231e+01
       E -4.70538e+01  4.61366e+01  6.35427e+01
3
# CELL(abcABC): 1322.94304  1322.94304  1322.94304    90.00000    90.00000    90.00000  Step:        3600  Bead:       6 positions{angstrom}  cell{angstrom}
       E -6.21612e+01 -3.37143e+01  7.82615e+00
       E  3.94841e+01 -2.92037e+01  2.48338e+00
       E -8.37731e+01  3.91048e+01  3.58045e+01
3
# CELL(abcABC): 1322.94304  1322.94304  1322.94304    90.00000    90.00000    90.00000  Step:        3700  Bead:       6 positions{angstrom}  cell{angstrom}
       E -9.70056e+01 -5.11551e+01 -2.47066e+01
       E -7.47050e+00 -8.78034e+00  6.49346e+00
       E -5.78498e+01  1.55165e+01 -8.81183e+00
3
# CELL(abcABC): 1322.94304  1322.94304  1322.94304    90.00000    90.00000    90.00000  Step:        3800  Bead:       6 positions{angstrom}  cell{angstrom}
       E -7.67320e+01 -4.91179e+01 -4.92288e+01
       E -4.61386e+01 -3.75274e+01 -7.29462e+00
       E -3.64681e+01  1.13858e+01  2.22469e+00
3
# CELL(abcABC): 1322.94304  1322.94304  1322.94304    90.00000    90.00000    90.00000  Step:        3900  Bead:       6 positions{angstrom}  cell{angstrom}
       E -4.53285e+01 -6.17674e+00 -1.83355e+01
       E -3.74187e+01 -6.16551e+00 -3.33217e+01
       E -1.82168e+01 -3.24077e+01  1.07660e+00
3
# CELL(abcABC): 1322.94304  1322.94304  1322.94304    90.00000    90.00000    90.00000  Step:        4000  Bead:       6 positions{angstrom}  cell{angstrom}
       E -8.05917e+01 -8.43614e+00 -1.83381e+01
       E -6.86355e+01 -4.99367e+00  1.05279e+01
       E -3.96814e+01  2.86482e+01 -7.08291e+00
3
# CELL(abcABC): 1322.94304  1322.94304  1322.94304    90.00000    90.00000    90.00000  Step:        4100  Bead:       6 positions{angstrom}  cell{angstrom}
       E -8.11613e+01  4.20864e+01 -6.19887e+01
       E -2.45822e+01  1.91667e+01  1.85967e+01
       E -4.37465e+01  4.50505e+01  5.55677e+01
3
# CELL(abcABC): 1322.94304  1322.94304  1322.94304    90.00000    90.00000    90.00000  Step:        4200  Bead:       6 positions{angstrom}  cell{angstrom}
       E -1.11000e+01  3.81124e+01 -3.11441e+01
       E -5.32919e+01  1.74147e+01  7.57396e+00
       E -6.35649e+01  3.26069e+01  4.79129e+01
3
# CELL(abcABC): 1322.94304  1322.94304  1322.94304    90.00000    90.00000    90.00000  Step:        4300  Bead:       6 positions{angstrom}  cell{angstrom}
       E -2.69366e+01 -6.45539e-02 -4.03103e+01
       E -5.41483e+01  1.41988e+01  1.17919e+01
       E -4.94221e+01 -3.93155e+00  1.93807e+01
3
# CELL(abcABC): 1322.94304  1322.94304  1322.94304    90.00000    90.00000    90.00000  Step:        4400  Bead:       6 positions{angstrom}  cell{angstrom}
       E -3.88526e+01  6.19316e+00 -3.01230e+01
       E -9.34827e+01  6.21907e+01 -1.50142e+01
       E -5.37826e+01  2.06409e+00  5.78074e+00
3
# CELL(abcABC): 1322.94304  1322.94304  1322.94304    90.00000    90.00000    90.00000  Step:        4500  Bead:       6 positions{angstrom}  cell{angstrom}
       E -3.10186e+01  1.99884e+01  6.28869e-01
       E -5.26074e+01  6.84255e+01 -4.18981e+01
       E -3.96438e+01 -9.05353e+00  2.67457e+01
3
# CELL(abcABC): 1322.94304  1322.94304  1322.94304    90.00000    90.00000    90.00000  Step:        4600  Bead:       6 positions{angstrom}  cell{angstrom}
       E  3.30719e+01  3.80904e+01 -4.17186e+01
       E -7.94553e+01  1.51485e+01 -4.59136e+01
       E -4.05981e+01  2.92273e+01  2.90469e+01
3
# CELL(abcABC): 1322.94304  1322.94304  1322.94304    90.00000    90.00000    90.00000  Step:        4700  Bead:       6 positions{angstrom}  cell{angstrom}
       E  3.29509e+01  5.10492e+01 -2.81522e+01
       E -6.63509e+01  4.21552e+01 -4.96539e+01
       E -2.14980e+01  4.58994e+01 -2.27193e+01
3
# CELL(abcABC): 1322.94304  1322.94304  1322.94304    90.00000    90.00000    90.00000  Step:        4800  Bead:       6 positions{angstrom}  cell{angstrom}
       E  2.71251e+01  5.21201e+01  1.39391e+01
       E -4.04225e+01  2.01408e+01 -2.72276e+01
       E  1.24739e+01  3.76113e+01 -5.61265e+01
3
# CELL(abcABC): 1322.94304  1322.94304  1322.94304    90.00000    90.00000    90.00000  Step:        4900  Bead:       6 positions{angstrom}  cell{angstrom}
       E  2.91161e+01  1.72087e+01 -8.53609e+00
       E -7.72144e+01  1.21761e+01 -3.87958e+01
       E -1.52684e+01  2.49568e+01 -5.83646e+01
3
# CELL(abcABC): 1322.94304  1322.94304  1322.94304    90.00000    90.00000    90.00000  Step:        5000  Bead:       6 positions{angstrom}  cell{angstrom}
       E  2.03907e+01 -7.58416e+00  4.94220e+01
       E -3.51209e+01 -1.65159e+01 -5.02571e+01
       E -2.58253e+01  8.59984e+00 -5.58177e+01
3
# CELL(abcABC): 1322.94304  1322.94304  1322.94304    90.00000    90.00000    90.00000  Step:        5100  Bead:       6 positions{angstrom}  cell{angstrom}
       E -7.24232e+00 -1.19645e+01  2.35384e+01
       E -1.56746e+01  3.69626e+00 -1.32876e+01
       E  6.70152e+00 -6.37261e+00 -1.39397e+01
3
# CELL(abcABC): 1322.94304  1322.94304  1322.94304    90.00000    90.00000    90.00000  Step:        5200  Bead:       6 positions{angstrom}  cell{angstrom}
       E -1.13012e+00  8.36887e+00  8.75233e+00
       E -1.84523e+01  3.88215e+01 -6.73965e+00
       E  1.03996e+01  8.48293e+00  1.22635e+01
3
# CELL(abcABC): 1322.94304  1322.94304  1322.94304    90.00000    90.00000    90.00000  Step:        5300  Bead:       6 positions{angstrom}  cell{angstrom}
       E -6.64203e+00  3.01719e+01  5.04106e+01
       E -8.29915e+00  4.03190e+01 -4.28306e+01
       E  1.31872e+01  3.51305e+01  1.38912e+01
3
# CELL(abcABC): 1322.94304  1322.94304  1322.94304    90.00000    90.00000    90.00000  Step:        5400  Bead:       6 positions{angstrom}  cell{angstrom}
       E -6.96498e+00  6.72929e+00  4.90962e+01
       E -1.90743e+01  8.86326e+00 -4.28789e+01
       E -3.97777e+00  5.53208e+00  1.81724e+01
3
# CELL(abcABC): 1322.94304  1322.94304  1322.94304    90.00000    90.00000    90.00000  Step:        5500  Bead:       6 positions{angstrom}  cell{angstrom}
       E -1.92236e+01  3.54150e+01  6.12297e+01
       E -3.99823e+01  6.72696e+00 -3.05095e+01
       E -5.25832e+00  1.37596e+01  2.59851e+01
3
# CELL(abcABC): 1322.94304  1322.94304  1322.94304    90.00000    90.00000    90.00000  Step:        5600  Bead:       6 positions{angstrom}  cell{angstrom}
       E -8.20530e-01  2.41656e+01  1.96613e+01
       E  1.48491e+01  3.08696e+01 -1.93958e+01
       E -1.19033e+01  2.62407e+01  3.04992e+01
3
# CELL(abcABC): 1322.94304  1322.94304  1322.94304    90.00000    90.00000    90.00000  Step:        5700  Bead:       6 positions{angstrom}  cell{angstrom}
       E -4.23350e+01  3.21408e+01 -1.42614e+00
       E  8.27471e+00  3.48094e+01  1.02150e+01
       E -3.63543e+01  4.05309e+01 -2.95479e+00
3
# CELL(abcABC): 1322.94304  1322.94304  1322.94304    90.00000    90.00000    90.00000  Step:        5800  Bead:       6 positions{angstrom}  cell{angstrom}
       E -2.26618e+01  3.29733e+00  5.57849e+00
       E -3.64576e+01  5.26933e+00 -3.60680e+00
       E  8.55979e+00  4.46356e+01  7.40271e+00
3
# CELL(abcABC): 1322.94304  1322.94304  1322.94304    90.00000    90.00000    90.00000  Step:        5900  Bead:       6 positions{angstrom}  cell{angstrom}
       E -2.28469e+01 -3.73135e+01  2.78525e+01
       E -6.29054e+01  1.39774e+01 -2.56309e+01
       E -2.68107e+01  2.53059e+01 -3.49271e+00
3
# CELL(abcABC): 1322.94304  1322.94304  1322.94304    90.00000    90.00000    90.00000  Step:        6000  Bead:       6 positions{angstrom}  cell{angstrom}
       E  2.19509e+01 -6.87803e+01 -6.79435e-01
       E -5.22778e+01  7.04790e+00 -1.65548e+01
       E  3.74750e+01  1.01686e+01 -1.40082e+01
3
# CELL(abcABC): 1322.94304  1322.94304  1322.94304    90.00000    90.00000    90.00000  Step:        6100  Bead:       6 positions{angstrom}  cell{angstrom}
       E  2.70458e+01 -6.20981e+01 -2.80567e+01
       E -9.54520e+00  2.45848e+01  2.99199e+01
       E  4.94691e+01  3.47715e+01 -6.30478e+01
3
# CELL(abcABC): 1322.94304  1322.94304  1322.94304    90.00000    90.00000    90.00000  Step:        6200  Bead:       6 positions{angstrom}  cell{angstrom}
       E  1.66364e+01 -7.01723e+01 -7.05869e+01
       E  4.17677e+01 -3.45075e+01  9.92711e+00
       E  6.36371e+01  9.32801e+00 -6.68075e+01
3
# CELL(abcABC): 1322.94304  1322.94304  1322.94304    90.00000    90.00000    90.00000  Step:        6300  Bead:       6 positions{angstrom}  cell{angstrom}
       E  2.38078e+01 -5.06647e+01 -6.64321e+01
       E  4.86017e+01 -4.61092e+01  2.83726e+00
       E  5.56795e+01  2.48519e+00 -3.83002e+01
3
# CELL(abcABC): 1322.94304  1322.94304  1322.94304    90.00000    90.00000    90.00000  Step:        6400  Bead:       6 positions{angstrom}  cell{angstrom}
       E  1.77295e+00 -5.03377e+01 -6.88855e+01
       E  6.18765e+01 -4.93456e+01 -1.45131e+01
       E  4.54527e+01 -2.99331e+01 -7.07978e+00
3
# CELL(abcABC): 1322.94304  1322.94304  1322.94304    90.00000    90.00000    90.00000  Step:        6500  Bead:       6 positions{angstrom}  cell{angstrom}
       E -4.23960e+01 -1.19017e+02 -8.77803e+01
       E  4.80953e+01 -5.59287e+01 -1.85643e+01
       E  1.95110e+01 -2.40589e+01 -2.70557e+01
3
# CELL(abcABC): 1322.94304  1322.94304  1322.94304    90.00000    90.00000    90.00000  Step:        6600  Bead:       6 positions{angstrom}  cell{angstrom}
       E -1.56716e+01 -1.05707e+02 -1.38410e+02
       E -9.70159e+00 -4.19260e+01 -1.05473e+01
       E  2.21256e+01  5.42655e+00 -4.05673e+00
3
# CELL(abcABC): 1322.94304  1322.94304  1322.94304    90.00000    90.00000    90.00000  Step:        6700  Bead:       6 positions{angstrom}  cell{angstrom}
       E -2.22868e+01 -8.23656e+01 -1.08309e+02
       E  5.53669e+00 -8.27462e+01  1.43565e+00
       E  1.28979e+01  1.21755e+01 -1.83073e+01
3
# CELL(abcABC): 1322.94304  1322.94304  1322.94304    90.00000    90.00000    90.00000  Step:        6800  Bead:       6 positions{angstrom}  cell{angstrom}
       E -3.66111e-01 -8.30703e+01 -5.23037e+01
       E -5.02858e+00 -3.22835e+01  2.45673e+01
       E -3.70722e+00  5.72906e+01 -1.16371e+01
3
# CELL(abcABC): 1322.94304  1322.94304  1322.94304    90.00000    90.00000    90.00000  Step:        6900  Bead:       6 positions{angstrom}  cell{angstrom}
       E -2.50016e+01 -4.27478e+01 -5.38589e+01
       E  1.01063e+01 -3.03559e+01 -1.18129e+01
       E -2.05590e+00  5.50017e+01 -1.60344e+01
3
# CELL(abcABC): 1322.94304  1322.94304  1322.94304    90.00000    90.00000    90.00000  Step:        7000  Bead:       6 positions{angstrom}  cell{angstrom}
       E -5.06762e+01 -4.67644e+01 -3.65930e+01
       E -3.93735e-01 -2.19086e+01  6.35718e+00
       E  1.87300e+01  4.06569e+01  3.22276e+00
3
# CELL(abcABC): 1322.94304  1322.94304  1322.94304    90.00000    90.00000    90.00000  Step:        7100  Bead:       6 positions{angstrom}  cell{angstrom}
       E -1.61810e+00 -2.75277e+01 -1.70791e+01
       E  5.49485e+00 -4.50804e+00  2.46993e+01
       E -3.74956e+00  4.32700e+01  4.00653e+01
3
# CELL(abcABC): 1322.94304  1322.94304  1322.94304    90.00000    90.00000    90.00000  Step:        7200  Bead:       6 positions{angstrom}  cell{angstrom}
       E -6.88105e+00 -3.42473e+01 -2.88471e+01
       E -1.43097e+00  2.27111e+01  4.95016e+01
       E  2.07065e+01  6.89424e+01  1.18154e+01
3
# CELL(abcABC): 1322.94304  1322.94304  1322.94304    90.00000    90.00000    90.00000  Step:        7300  Bead:       6 positions{angstrom}  cell{angstrom}
       E -4.97284e+00 -3.24160e+01 -4.20444e+00
       E  2.83017e+01  2.42371e+01  1.05281e+01
       E  7.83963e+01  5.74493e+01  5.84567e+00
3
# CELL(abcABC): 1322.94304  1322.94304  1322.94304    90.00000    90.00000    90.00000  Step:        7400  Bead:       6 positions{angstrom}  cell{angstrom}
       E -1.56680e+01 -5.10701e+01 -8.51205e+00
       E  3.53795e+01  2.13952e+01  4.04996e+01
       E  4.97464e+01  7.21347e+01 -5.09593e+00
3
# CELL(abcABC): 1322.94304  1322.94304  1322.94304    90.00000    90.00000    90.00000  Step:        7500  Bead:       6 positions{angstrom}  cell{angstrom}
       E -2.61466e+01 -5.09881e+01 -2.35055e+01
       E  4.12356e+00  1.09121e+01 -2.26476e+01
       E  4.13137e+01  8.13007e+01 -1.42572e+01
3
# CELL(abcABC): 1322.94304  1322.94304  1322.94304    90.00000    90.00000    90.00000  Step:        7600  Bead:       6 positions{angstrom}  cell{angstrom}
       E -1.75804e+01 -7.00910e+01 -1.91579e+01
       E -1.12143e+01 -6.99866e+01 -2.28104e+01
       E  6.70925e+01  1.73282e+01 -1.76683e+01
3
# CELL(abcABC): 1322.94304  1322.94304  1322.94304    90.00000    90.00000    90.00000  Step:        7700  Bead:       6 positions{angstrom}  cell{angstrom}
       E  2.11622e+01 -1.39877e+01 -2.51027e+01
       E  1.57622e+00 -3.76456e+01 -4.07822e+01
       E  6.36288e+00 -2.41330e+01 -1.22145e+01
3
# CELL(abcABC): 1322.94304  1322.94304  1322.94304    90.00000    90.00000    90.00000  Step:        7800  Bead:       6 positions{angstrom}  cell{angstrom}
       E  4.01749e+01  6.87870e+00 -4.39926e+01
       E  3.26353e+01 -2.26792e+01 -3.08896e+01
       E  2.05228e+01 -3.27894e+01 -5.96036e+01
3
# CELL(abcABC): 1322.94304  1322.94304  1322.94304    90.00000    90.00000    90.00000  Step:        7900  Bead:       6 positions{angstrom}  cell{angstrom}
       E  5.07747e+01 -2.17634e+01 -5.70911e+01
       E  5.97938e+01 -4.49596e+01 -3.37182e+01
       E  1.43921e+01  9.98858e+00 -5.89223e+01
3
# CELL(abcABC): 1322.94304  1322.94304  1322.94304    90.00000    90.00000    90.00000  Step:        8000  Bead:       6 positions{angstrom}  cell{angstrom}
       E  3.60145e+01 -1.15373e+00 -1.40477e+01
       E  4.58439e+01 -1.12768e+01 -4.54485e+01
       E -3.09470e+01  3.20989e+01 -1.14422e+01
3
# CELL(abcABC): 1322.94304  1322.94304  1322.94304    90.00000    90.00000    90.00000  Step:        8100  Bead:       6 positions{angstrom}  cell{angstrom}
       E  2.02298e+01 -1.82618e+01 -2.45257e+01
       E  4.16246e+01  1.13025e+01  5.79760e-01
       E -3.53690e+01 -1.32651e+01  2.02636e+01
3
# CELL(abcABC): 1322.94304  1322.94304  1322.94304    90.00000    90.00000    90.00000  Step:        8200  Bead:       6 positions{angstrom}  cell{angstrom}
       E  3.22991e+01  1.09430e+01 -7.16181e+01
       E  3.87482e+01  3.61881e+01  2.35229e+01
       E  1.53913e+01 -4.53541e+01  4.72667e+01
3
# CELL(abcABC): 1322.94304  1322.94304  1322.94304    90.00000    90.00000    90.00000  Step:        8300  Bead:       6 positions{angstrom}  cell{angstrom}
       E  3.80859e+01 -1.32241e+01 -7.20835e+01
       E  2.37959e+01  1.77438e+01  6.39996e+01
       E -7.64516e-01 -2.99781e+01  3.18986e+01
3
# CELL(abcABC): 1322.94304  1322.94304  1322.94304    90.00000    90.00000    90.00000  Step:        8400  Bead:       6 positions{angstrom}  cell{angstrom}
       E  2.92181e+01  2.02504e+01 -5.49113e+01
       E  3.87214e+00  4.78951e+00  2.35291e+01
       E  3.18151e+01  9.82429e+00  2.69274e+01
3
# CELL(abcABC): 1322.94304  1322.94304  1322.94304    90.00000    90.00000    90.00000  Step:        8500  Bead:       6 positions{angstrom}  cell{angstrom}
       E -2.88392e+01  2.73388e+00 -1.55820e+01
       E  6.09400e+01  3.64834e+00  6.60605e+00
       E  3.49222e+01 -7.80697e+00  3.49471e+01
3
# CELL(abcABC): 1322.94304  1322.94304  1322.94304    90.00000    90.00000    90.00000  Step:        8600  Bead:       6 positions{angstrom}  cell{angstrom}
       E -4.82583e+01  3.78243e+01 -1.80458e+01
       E  4.70390e+01  4.86831e+01 -1.64714e+01
       E  4.16533e+01 -1.40686e+01  4.47313e+01
3
# CELL(abcABC): 1322.94304  1322.94304  1322.94304    90.00000    90.00000    90.00000  Step:        8700  Bead:       6 positions{angstrom}  cell{angstrom}
       E -2.88914e+00  3.52489e+01 -2.38746e+01
       E  7.38685e+01  1.42672e+01 -5.61493e+00
       E  5.62230e+01 -4.25143e+01  1.65391e+01
3
# CELL(abcABC): 1322.94304  1322.94304  1322.94304    90.00000    90.00000    90.00000  Step:        8800  Bead:       6 positions{angstrom}  cell{angstrom}
       E -1.23192e+01  4.61319e+01  5.76746e+00
       E  2.10828e+01  1.00612e+01  1.75660e+01
       E  2.69501e+01 -8.09818e+01  6.31488e+01
3
# CELL(abcABC): 1322.94304  1322.94304  1322.94304    90.00000    90.00000    90.00000  Step:        8900  Bead:       6 positions{angstrom}  cell{angstrom}
       E  2.47881e+00  2.64252e+01  2.20392e+01
       E  3.38676e-02 -5.26700e+01  3.79059e+01
       E  3.35982e+00 -5.35490e+01  3.65856e+01
3
# CELL(abcABC): 1322.94304  1322.94304  1322.94304    90.00000    90.00000    90.00000  Step:        9000  Bead:       6 positions{angstrom}  cell{angstrom}
       E -1.84959e+01  2.43543e+01  2.95800e+01
       E -2.71647e+01 -2.78362e+01  5.77922e+01
       E  1.87197e+01 -7.12118e+01 -2.17840e+01
3
# CELL(abcABC): 1322.94304  1322.94304  1322.94304    90.00000    90.00000    90.00000  Step:        9100  Bead:       6 positions{angstrom}  cell{angstrom}
       E  8.47143e-01  3.28021e+01  4.37455e+01
       E -4.40930e+01 -3.66399e+01  5.57183e+01
       E -1.26010e+01 -7.83579e+01 -2.02801e+01
3
# CELL(abcABC): 1322.94304  1322.94304  1322.94304    90.00000    90.00000    90.00000  Step:        9200  Bead:       6 positions{angstrom}  cell{angstrom}
       E  1.75411e+01  5.79681e+01  1.04304e+01
       E -1.31673e+01  6.33622e+00  1.54301e+01
       E  1.57331e+01 -3.19701e+01  6.04823e+00
3
# CELL(abcABC): 1322.94304  1322.94304  1322.94304    90.00000    90.00000    90.00000  Step:        9300  Bead:       6 positions{angstrom}  cell{angstrom}
       E  1.29903e+01  4.31985e+01 -4.06371e+01
       E  1.28127e+01 -3.71517e+01  1.50428e+01
       E  1.40901e+01 -2.39226e+01 -1.07781e+01
3
# CELL(abcABC): 1322.94304  1322.94304  1322.94304    90.00000    90.00000    90.00000  Step:        9400  Bead:       6 positions{angstrom}  cell{angstrom}
       E  1.69269e+01  4.24376e+01 -5.04164e+01
       E  1.02019e+01 -2.91225e+01  2.26570e+01
       E  3.05744e+01 -6.13011e+01  3.79176e+00
3
# CELL(abcABC): 1322.94304  1322.94304  1322.94304    90.00000    90.00000    90.00000  Step:        9500  Bead:       6 positions{angstrom}  cell{angstrom}
       E  1.08513e+01  2.11247e+01 -3.32754e+01
       E  2.39018e+01 -2.25324e+01 -4.46750e+00
       E -4.55440e+00 -5.31885e+01 -7.17245e+00
3
# CELL(abcABC): 1322.94304  1322.94304  1322.94304    90.00000    90.00000    90.00000  Step:        9600  Bead:       6 positions{angstrom}  cell{angstrom}
       E -4.46389e+01 -9.02913e-01 -3.71623e+01
       E  4.41912e+01 -5.68814e+01  4.31738e+01
       E -1.26540e+01 -1.79909e+00  4.18656e+00
3
# CELL(abcABC): 1322.94304  1322.94304  1322.94304    90.00000    90.00000    90.00000  Step:        9700  Bead:       6 positions{angstrom}  cell{angstrom}
       E -1.35320e+01 -1.04790e+01 -6.71288e+01
       E  3.81344e+01 -7.22964e+01  4.13077e+01
       E  1.73308e+01 -3.99951e+01  2.32688e+01
3
# CELL(abcABC): 1322.94304  1322.94304  1322.94304    90.00000    90.00000    90.00000  Step:        9800  Bead:       6 positions{angstrom}  cell{angstrom}
       E -1.97057e+01 -6.39866e+01 -6.22592e+01
       E  2.16964e+01 -8.93145e+01  4.60034e+00
       E -1.27817e+01 -3.04019e+01  3.76081e+01
3