3
# CELL(abcABC): 1322.94304  1322.94304  1322.94304    90.00000    90.00000    90.00000  Step:           0  Bead:      19 positions{angstrom}  cell{angstrom}
       E  0.00000e+00  0.00000e+00  0.00000e+00
       E  0.00000e+00  0.00000e+00  0.00000e+00
       E  0.00000e+00  0.00000e+00  0.00000e+00
3
# CELL(abcABC): 1322.94304  1322.94304  1322.94304    90.00000    90.00000    90.00000  Step:         100  Bead:      19 positions{angstrom}  cell{angstrom}
       E  5.87507e+00  1.08404e+00 -2.43790e+01
       E -2.97606e+01 -6.16048e+01 -2.51636e+01
       E  5.23035e+00  2.40294e+01 -2.67680e+01
3
# CELL(abcABC): 1322.94304  1322.94304  1322.94304    90.00000    90.00000    90.00000  Step:         200  Bead:      19 positions{angstrom}  cell{angstrom}
       E  2.63984e+01  4.62784e+00 -7.32188e+00
       E  2.12216e+01 -4.32831e+01 -1.83643e+01
       E  2.26352e+01  3.40163e+01 -1.61716e+01
3
# CELL(abcABC): 1322.94304  1322.94304  1322.94304    90.00000    90.00000    90.00000  Step:         300  Bead:      19 positions{angstrom}  cell{angstrom}
       E  1.44269e+00  2.82426e+01  1.21934e+01
       E  1.40120e+01 -1.22191e+01  1.39609e+01
       E -3.57966e+00  3.42198e+01 -3.51308e+01
3
# CELL(abcABC): 1322.94304  1322.94304  1322.94304    90.00000    90.00000    90.00000  Step:         400  Bead:      19 positions{angstrom}  cell{angstrom}
       E -1.66456e+01  2.58650e+01 -7.90935e+00
       E  3.17878e+01 -4.61135e+00 -4.93673e+00
       E -3.88438e+01  8.19663e+00 -1.39620e+01
3
# CELL(abcABC): 1322.94304  1322.94304  1322.94304    90.00000    90.00000    90.00000  Step:         500  Bead:      19 positions{angstrom}  cell{angstrom}
       E  3.25709e+00 -1.38668e+01 -1.14055e+01
       E  3.51688e+01  3.80725e+00  7.05102e+00
       E  4.09871e+00 -9.95920e+00  2.42225e+01
3
# CELL(abcABC): 1322.94304  1322.94304  1322.94304    90.00000    90.00000    90.00000  Step:         600  Bead:      19 positions{angstrom}  cell{angstrom}
       E  4.66045e+00  9.63576e+00 -1.52490e+01
       E  1.70317e+01  1.31135e+00 -7.44539e+00
       E  1.40255e+01 -2.22164e+01  2.18397e+01
3
# CELL(abcABC): 1322.94304  1322.94304  1322.94304    90.00000    90.00000    90.00000  Step:         700  Bead:      19 positions{angstrom}  cell{angstrom}
       E  2.95562e+01  3.04957e+01 -2.66868e+00
       E  2.88171e+01 -6.31122e-01 -2.02127e+01
       E  2.40524e-01 -6.41695e+00  2.55964e+01
3
# CELL(abcABC): 1322.94304  1322.94304  1322.94304    90.00000    90.00000    90.00000  Step:         800  Bead:      19 positions{angstrom}  cell{angstrom}
       E -1.53092e+01  6.01875e+00  1.20160e+01
       E  4.16375e+01  2.26873e+01  7.93143e-01
       E -2.58448e+01 -2.69042e+01  7.19924e+01
3
# CELL(abcABC): 1322.94304  1322.94304  1322.94304    90.00000    90.00000    90.00000  Step:         900  Bead:      19 positions{angstrom}  cell{angstrom}
       E -3.88471e+01  4.61312e+01 -2.54340e+01
       E -1.93375e+00  3.91715e+00 -3.01564e+01
       E -4.99529e+01 -3.16797e+01  6.61198e+01
3
# CELL(abcABC): 1322.94304  1322.94304  1322.94304    90.00000    90.00000    90.00000  Step:        1000  Bead:      19 positions{angstrom}  cell{angstrom}
       E  5.76152e+00  2.29369e+01 -1.16876e+01
       E -1.91440e+01  1.28836e+01 -3.03222e+01
       E -2.68740e+01 -2.37834e+01  4.54115e+01
3
# CELL(abcABC): 1322.94304  1322.94304  1322.94304    90.00000    90.00000    90.00000  Step:        1100  Bead:      19 positions{angstrom}  cell{angstrom}
       E  4.40769e+00 -1.73577e+01 -4.44445e+01
       E  3.13869e+00  1.83488e+01 -1.71101e+01
       E -3.28596e+01  3.68069e+01  1.70196e+01
3
# CELL(abcABC): 1322.94304  1322.94304  1322.94304    90.00000    90.00000    90.00000  Step:        1200  Bead:      19 positions{angstrom}  cell{angstrom}
       E -1.42908e+01  2.71095e+01 -5.81860e+01
       E -1.09931e-01  8.52944e-01  3.87008e-01
       E  9.39900e+00  6.58696e+01 -2.47985e+01
3
# CELL(abcABC): 1322.94304  1322.94304  1322.94304    90.00000    90.00000    90.00000  Step:        1300  Bead:      19 positions{angstrom}  cell{angstrom}
       E -1.91832e+01  2.95395e+01 -6.23733e+01
       E  3.07185e+01 -3.07965e+01 -1.68706e+01
       E  2.31270e+01  2.09122e+00 -3.06769e+01
3
# CELL(abcABC): 1322.94304  1322.94304  1322.94304    90.00000    90.00000    90.00000  Step:        1400  Bead:      19 positions{angstrom}  cell{angstrom}
       E  3.74452e+00  1.47217e+01 -7.65092e+01
       E -7.67233e+00  2.86426e+01 -1.40955e+01
       E  7.06927e+00 -1.82236e+01 -8.36338e+00
3
# CELL(abcABC): 1322.94304  1322.94304  1322.94304    90.00000    90.00000    90.00000  Step:        1500  Bead:      19 positions{angstrom}  cell{angstrom}
       E  8.92028e+00  3.62278e+01 -7.05877e+00
       E -3.79799e+01  4.90539e+01  2.84979e+01
       E -4.44338e+00  5.94576e+00 -1.25348e+01
3
# CELL(abcABC): 1322.94304  1322.94304  1322.94304    90.00000    90.00000    90.00000  Step:        1600  Bead:      19 positions{angstrom}  cell{angstrom}
       E -2.27336e+01  1.28097e+01 -3.28590e+01
       E -6.70298e+00  4.26596e+01  5.89634e+00
       E  2.81242e+00  5.04806e+00 -3.84158e+01
3
# CELL(abcABC): 1322.94304  1322.94304  1322.94304    90.00000    90.00000    90.00000  Step:        1700  Bead:      19 positions{angstrom}  cell{angstrom}
       E  2.59848e+00  5.99239e+01 -3.08468e+00
       E -3.58950e+01  7.71402e+01  2.90278e+01
       E -1.32678e+01  4.99915e+01  2.86935e+01
3
# CELL(abcABC): 1322.94304  1322.94304  1322.94304    90.00000    90.00000    90.00000  Step:        1800  Bead:      19 positions{angstrom}  cell{angstrom}
       E -7.57962e+00  3.34005e+01  4.38328e+01
       E -5.46482e+01  8.88594e+01  1.99846e+01
       E -4.63817e+01  4.98615e+01  3.36599e+01
3
# CELL(abcABC): 1322.94304  1322.94304  1322.94304    90.00000    90.00000    90.00000  Step:        1900  Bead:      19 positions{angstrom}  cell{angstrom}
       E  2.57993e+01  6.56062e+00  5.32661e+01
       E -6.85856e+01  5.77340e+01  2.05060e+01
       E -1.07304e+02  5.65031e+01  6.02046e+00
3
# CELL(abcABC): 1322.94304  1322.94304  1322.94304    90.00000    90.00000    90.00000  Step:        2000  Bead:      19 positions{angstrom}  cell{angstrom}
       E -2.03167e+01 -5.65026e+01  5.44951e+01
       E -8.31343e+01  2.24549e+01  2.00546e+01
       E -9.27543e+01  4.75910e+01  1.03882e+01
3
# CELL(abcABC): 1322.94304  1322.94304  1322.94304    90.00000    90.00000    90.00000  Step:        2100  Bead:      19 positions{angstrom}  cell{angstrom}
       E -5.52335e+01 -2.87109e+01  4.45796e+01
       E -6.41765e+01  1.15974e+01  2.97974e+01
       E -8.13704e+01  8.27797e+01  4.31492e+01
3
# CELL(abcABC): 1322.94304  1322.94304  1322.94304    90.00000    90.00000    90.00000  Step:        2200  Bead:      19 positions{angstrom}  cell{angstrom}
       E -1.32763e+01 -3.85956e+01  4.27775e+01
       E -3.57319e+01 -1.24079e+01 -9.14677e+00
       E -6.78686e+01  5.10440e+01  4.30324e+00
3
# CELL(abcABC): 1322.94304  1322.94304  1322.94304    90.00000    90.00000    90.00000  Step:        2300  Bead:      19 positions{angstrom}  cell{angstrom}
       E -4.73525e+01 -5.43971e+01  5.20945e+01
       E -2.62792e+01  2.30085e+00  7.69289e+00
       E -1.56299e+01 -9.58810e+00  1.49990e+01
3
# CELL(abcABC): 1322.94304  1322.94304  1322.94304    90.00000    90.00000    90.00000  Step:        2400  Bead:      19 positions{angstrom}  cell{angstrom}
       E -5.46561e+01 -4.86208e+01  2.45985e+01
       E -2.03594e+01  2.75050e+01  1.14516e+01
       E -1.09092e+01  1.93824e+01  2.14476e+01
3
# CELL(abcABC): 1322.94304  1322.94304  1322.94304    90.00000    90.00000    90.00000  Step:        2500  Bead:      19 positions{angstrom}  cell{angstrom}
       E -4.93839e+01 -1.93977e+01  5.96807e+00
       E -2.79166e+01 -2.45394e+01 -1.83930e+01
       E  1.22864e+01 -3.55015e+01  1.68207e+01
3
# CELL(abcABC): 1322.94304  1322.94304  1322.94304    90.00000    90.00000    90.00000  Step:        2600  Bead:      19 positions{angstrom}  cell{angstrom}
       E -2.94709e+01 -2.26402e+01  3.56504e+01
       E -4.56662e+01 -3.07694e+01 -2.36454e+01
       E  9.87848e+00 -3.40698e+01  3.47242e+01
3
# CELL(abcABC): 1322.94304  1322.94304  1322.94304    90.00000    90.00000    90.00000  Step:        2700  Bead:      19 positions{angstrom}  cell{angstrom}
       E -4.02951e+01  5.71502e+00  4.92830e+01
       E -7.63064e+01 -2.86475e+01  1.76140e+01
       E  1.72351e+01 -4.87013e+01  1.06388e+01
3
# CELL(abcABC): 1322.94304  1322.94304  1322.94304    90.00000    90.00000    90.00000  Step:        2800  Bead:      19 positions{angstrom}  cell{angstrom}
       E -5.05253e+01 -1.02255e+01  4.68291e+01
       E -7.58350e+01 -2.52126e+01 -6.28538e+00
       E  3.76681e+00 -3.45441e+01 -4.59176e+00
3
# CELL(abcABC): 1322.94304  1322.94304  1322.94304    90.00000    90.00000    90.00000  Step:        2900  Bead:      19 positions{angstrom}  cell{angstrom}
       E -6.78777e+01 -8.03829e+00  3.12347e+01
       E -8.15990e+01 -5.99558e+01  2.93009e+01
       E -1.01658e+01 -1.33307e+01 -1.16915e+01
3
# CELL(abcABC): 1322.94304  1322.94304  1322.94304    90.00000    90.00000    90.00000  Step:        3000  Bead:      19 positions{angstrom}  cell{angstrom}
       E -4.59259e+01 -2.75956e+01  4.92262e+01
       E -6.04734e+01 -4.58450e+01  4.99649e+01
       E  9.51547e+00  1.97116e+01  1.31661e+01
3
# CELL(abcABC): 1322.94304  1322.94304  1322.94304    90.00000    90.00000    90.00000  Step:        3100  Bead:      19 positions{angstrom}  cell{angstrom}
       E -8.33655e+01 -3.08867e+01  6.34038e+01
       E -6.65487e+01 -2.40051e+01  3.67571e+01
       E  3.95402e+01  1.35285e+01  2.23572e+01
3
# CELL(abcABC): 1322.94304  1322.94304  1322.94304    90.00000    90.00000    90.00000  Step:        3200  Bead:      19 positions{angstrom}  cell{angstrom}
       E -6.11968e+01  2.37294e+01  1.17121e+01
       E -8.54239e+01  4.02910e+00  3.34732e+01
       E  3.94985e+01  2.67340e+01  2.57582e+01
3
# CELL(abcABC): 1322.94304  1322.94304  1322.94304    90.00000    90.00000    90.00000  Step:        3300  Bead:      19 positions{angstrom}  cell{angstrom}
       E -4.96107e+01  1.53496e+01  3.03633e+01
       E -7.83713e+01 -3.07111e+01  4.44073e+01
       E  3.17883e+01  4.79514e+01  2.29869e+01
3
# CELL(abcABC): 1322.94304  1322.94304  1322.94304    90.00000    90.00000    90.00000  Step:        3400  Bead:      19 positions{angstrom}  cell{angstrom}
       E -8.75197e+01 -4.02217e+00  7.80524e+01
       E -4.23348e+01  3.59142e+00  4.02383e+01
       E  7.40382e+00  2.12002e+01  1.74240e+01
3
# CELL(abcABC): 1322.94304  1322.94304  1322.94304    90.00000    90.00000    90.00000  Step:        3500  Bead:      19 positions{angstrom}  cell{angstrom}
       E -1.13426e+02  1.25212e+01  5.60832e+01
       E -1.47726e+01  1.19076e+01  3.75568e+01
       E -1.49221e+01 -5.84010e+00  4.03776e+01
3
# CELL(abcABC): 1322.94304  1322.94304  1322.94304    90.00000    90.00000    90.00000  Step:        3600  Bead:      19 positions{angstrom}  cell{angstrom}
       E -9.07407e+01 -3.73376e+00  2.92637e+01
       E  2.64177e+01  8.46614e+00  3.83738e+01
       E -2.57411e+01  9.31631e+00  4.01871e+01
3
# CELL(abcABC): 1322.94304  1322.94304  1322.94304    90.00000    90.00000    90.00000  Step:        3700  Bead:      19 positions{angstrom}  cell{angstrom}
       E -6.46618e+01  1.31329e+00 -4.81291e+01
       E  3.01210e+00  1.14021e+01  1.07481e+01
       E -5.54251e+01 -1.46226e+01 -1.90465e+01
3
# CELL(abcABC): 1322.94304  1322.94304  1322.94304    90.00000    90.00000    90.00000  Step:        3800  Bead:      19 positions{angstrom}  cell{angstrom}
       E -7.79838e+01 -2.19998e+01 -3.42228e+01
       E -2.10493e+01 -3.98024e+01  3.16309e+01
       E -4.19326e+01  1.96787e+01 -2.56794e+01
3
# CELL(abcABC): 1322.94304  1322.94304  1322.94304    90.00000    90.00000    90.00000  Step:        3900  Bead:      19 positions{angstrom}  cell{angstrom}
       E -9.95341e+01 -6.08535e+00 -4.52830e+01
       E -5.34494e+01 -3.79975e+01  2.24090e+01
       E -4.16557e+01 -1.21968e+01 -4.33372e+00
3
# CELL(abcABC): 1322.94304  1322.94304  1322.94304    90.00000    90.00000    90.00000  Step:        4000  Bead:      19 positions{angstrom}  cell{angstrom}
       E -1.14136e+02  1.38138e+01 -6.75892e+01
       E -5.73476e+01 -1.53666e+01  5.72720e+01
       E -2.11149e+01  2.04422e+01  2.03766e+01
3
# CELL(abcABC): 1322.94304  1322.94304  1322.94304    90.00000    90.00000    90.00000  Step:        4100  Bead:      19 positions{angstrom}  cell{angstrom}
       E -7.08973e+01  1.42026e+01 -8.22239e+01
       E -4.76991e+01  2.01201e+01 -2.33243e+00
       E -1.63154e+01 -5.00702e+00  2.37985e+01
3
# CELL(abcABC): 1322.94304  1322.94304  1322.94304    90.00000    90.00000    90.00000  Step:        4200  Bead:      19 positions{angstrom}  cell{angstrom}
       E -7.41174e+01 -2.60729e+01 -1.27542e+02
       E -6.45056e+01  2.79557e+01  1.99797e+01
       E -7.21058e+00  5.91271e+00  5.68878e+01
3
# CELL(abcABC): 1322.94304  1322.94304  1322.94304    90.00000    90.00000    90.00000  Step:        4300  Bead:      19 positions{angstrom}  cell{angstrom}
       E -1.51535e+01  6.57667e+00 -3.62274e+01
       E -5.75114e+01  2.14988e+01 -1.40706e+00
       E  1.97530e+01  1.67020e+01  3.91430e+01
3
# CELL(abcABC): 1322.94304  1322.94304  1322.94304    90.00000    90.00000    90.00000  Step:        4400  Bead:      19 positions{angstrom}  cell{angstrom}
       E -3.57672e+01  1.89356e+01 -1.98819e+01
       E -2.66320e+01  4.17318e+01 -5.69929e+01
       E  4.22163e+01 -1.08222e+01  2.20202e+01
3
# CELL(abcABC): 1322.94304  1322.94304  1322.94304    90.00000    90.00000    90.00000  Step:        4500  Bead:      19 positions{angstrom}  cell{angstrom}
       E -4.88220e+01  2.08697e+01 -6.44546e+01
       E -2.41075e+01  4.95998e+01 -3.72676e+01
       E  1.65251e-01 -4.84915e+00  1.98551e+01
3
# CELL(abcABC): 1322.94304  1322.94304  1322.94304    90.00000    90.00000    90.00000  Step:        4600  Bead:      19 positions{angstrom}  cell{angstrom}
       E -2.67749e+01  3.75024e+01 -5.85920e+01
       E -3.96995e+01  8.71718e+01 -1.79583e+01
       E -8.08417e+00  3.87128e+01 -5.07957e+00
3
# CELL(abcABC): 1322.94304  1322.94304  1322.94304    90.00000    90.00000    90.00000  Step:        4700  Bead:      19 positions{angstrom}  cell{angstrom}
       E -2.60451e+01  2.86671e+01 -8.30629e+00
       E -3.64015e+01  3.33873e+01 -4.63235e+01
       E -2.85223e+00  2.71154e+01 -1.32084e+01
3
# CELL(abcABC): 1322.94304  1322.94304  1322.94304    90.00000    90.00000    90.00000  Step:        4800  Bead:      19 positions{angstrom}  cell{angstrom}
       E -3.51982e+01  1.03210e+01 -3.18298e+01
       E -3.61755e+01  4.27026e+00 -8.41610e+00
       E  2.61705e+01 -1.92917e+00  3.77031e+01
3
# CELL(abcABC): 1322.94304  1322.94304  1322.94304    90.00000    90.00000    90.00000  Step:        4900  Bead:      19 positions{angstrom}  cell{angstrom}
       E  1.22200e+01 -4.58381e+00  3.61192e+01
       E -2.36886e+01  7.83974e+00 -2.47604e+01
       E  1.68717e+01 -1.36868e+01  8.78180e+00
3
# CELL(abcABC): 1322.94304  1322.94304  1322.94304    90.00000    90.00000    90.00000  Step:        5000  Bead:      19 positions{angstrom}  cell{angstrom}
       E  6.09857e+00 -9.06207e-01  3.74399e+01
       E -1.44401e+01  1.46868e+01 -3.27736e+01
       E  3.09205e+01  5.04254e+00 -1.02415e+01
3
# CELL(abcABC): 1322.94304  1322.94304  1322.94304    90.00000    90.00000    90.00000  Step:        5100  Bead:      19 positions{angstrom}  cell{angstrom}
       E -2.32154e+01  5.66101e+00  2.53010e+01
       E -1.89346e+01  4.22534e+01 -3.61104e+01
       E  8.83779e+00 -1.34217e+01 -3.52061e+01
3
# CELL(abcABC): 1322.94304  1322.94304  1322.94304    90.00000    90.00000    90.00000  Step:        5200  Bead:      19 positions{angstrom}  cell{angstrom}
       E -7.27623e+01 -2.52846e+00 -1.57027e+00
       E  9.49612e+00  2.46715e+01 -4.41940e+01
       E  1.87286e+01  1.06608e+01  1.33080e+01
3
# CELL(abcABC): 1322.94304  1322.94304  1322.94304    90.00000    90.00000    90.00000  Step:        5300  Bead:      19 positions{angstrom}  cell{angstrom}
       E -4.82281e+01 -1.48995e+01 -9.99528e+00
       E  2.44161e+01  7.31080e+01 -9.75166e+00
       E -4.45436e+01  3.32602e+01  3.50916e+01
3
# CELL(abcABC): 1322.94304  1322.94304  1322.94304    90.00000    90.00000    90.00000  Step:        5400  Bead:      19 positions{angstrom}  cell{angstrom}
       E -1.84554e+01 -1.50637e+01 -3.76099e+00
       E  4.84347e+01  1.46937e+01  3.85536e+00
       E -3.26166e+01  2.99286e+01  6.94801e+01
3
# CELL(abcABC): 1322.94304  1322.94304  1322.94304    90.00000    90.00000    90.00000  Step:        5500  Bead:      19 positions{angstrom}  cell{angstrom}
       E  9.76664e+00  1.13651e+00 -2.00909e+01
       E -1.80629e+01  1.77146e+01  2.99737e+00
       E -6.07274e+01 -1.64352e+01  6.32325e+01
3
# CELL(abcABC): 1322.94304  1322.94304  1322.94304    90.00000    90.00000    90.00000  Step:        5600  Bead:      19 positions{angstrom}  cell{angstrom}
       E -1.41887e+01  7.68845e-01 -1.90159e+01
       E -3.82931e+01  4.86880e+00 -1.30784e+00
       E -3.06059e+01 -3.77625e+00  4.32457e+01
3
# CELL(abcABC): 1322.94304  1322.94304  1322.94304    90.00000    90.00000    90.00000  Step:        5700  Bead:      19 positions{angstrom}  cell{angstrom}
       E -1.65001e-01 -3.41798e+01 -5.64143e+01
       E -4.45204e+01  1.52039e+01 -1.98407e+01
       E -6.48575e+01 -1.96591e+01 -1.34391e+01
3
# CELL(abcABC): 1322.94304  1322.94304  1322.94304    90.00000    90.00000    90.00000  Step:        5800  Bead:      19 positions{angstrom}  cell{angstrom}
       E -6.62538e+00 -4.38671e-01 -2.29297e+01
       E -2.48600e+01  3.85781e+01 -1.08855e+01
       E -6.62017e+00  2.35233e+01 -6.46277e+00
3
# CELL(abcABC): 1322.94304  1322.94304  1322.94304    90.00000    90.00000    90.00000  Step:        5900  Bead:      19 positions{angstrom}  cell{angstrom}
       E -4.37399e+00  9.31666e+00 -1.45719e+01
       E -1.61643e+01  2.00788e+01  2.80675e+01
       E  1.47021e+01 -3.48764e+00 -3.47270e+01
3
# CELL(abcABC): 1322.94304  1322.94304  1322.94304    90.00000    90.00000    90.00000  Step:        6000  Bead:      19 positions{angstrom}  cell{angstrom}
       E -1.86356e+00 -4.48217e+01  1.02625e+01
       E  1.23441e+01  1.37904e+00  1.02645e+01
       E  1.00361e+01 -9.83147e+00  4.17245e+00
3
# CELL(abcABC): 1322.94304  1322.94304  1322.94304    90.00000    90.00000    90.00000  Step:        6100  Bead:      19 positions{angstrom}  cell{angstrom}
       E -4.12132e+01 -5.34101e+01 -1.85102e+01
       E  5.33248e+01  1.28733e+01  9.25355e+00
       E  3.63318e+01  6.59815e-02 -3.21461e+01
3
# CELL(abcABC): 1322.94304  1322.94304  1322.94304    90.00000    90.00000    90.00000  Step:        6200  Bead:      19 positions{angstrom}  cell{angstrom}
       E -1.32841e+01 -3.77660e+01 -7.58438e+01
       E  1.01235e+02  3.62960e+01  7.70774e+00
       E  2.29264e+01 -2.12427e+01 -1.12346e+01
3
# CELL(abcABC): 1322.94304  1322.94304  1322.94304    90.00000    90.00000    90.00000  Step:        6300  Bead:      19 positions{angstrom}  cell{angstrom}
       E -2.54732e+00 -4.60354e+01 -8.22300e+01
       E  1.02999e+02  1.02682e+01 -3.18065e+01
       E  3.11427e+01 -3.76720e+01 -1.60977e+01
3
# CELL(abcABC): 1322.94304  1322.94304  1322.94304    90.00000    90.00000    90.00000  Step:        6400  Bead:      19 positions{angstrom}  cell{angstrom}
       E  3.72838e+01 -4.88869e+01 -9.97833e+01
       E  3.30281e+01 -7.84178e+00 -6.02653e+01
       E  4.80534e+01 -1.57299e+01 -3.23665e+01
3
# CELL(abcABC): 1322.94304  1322.94304  1322.94304    90.00000    90.00000    90.00000  Step:        6500  Bead:      19 positions{angstrom}  cell{angstrom}
       E  2.86646e+01 -5.84319e+01 -8.98717e+01
       E  8.08631e+00  3.48317e+01 -2.98955e+01
       E  6.80360e+01 -2.98425e+01 -2.69581e+01
3
# CELL(abcABC): 1322.94304  1322.94304  1322.94304    90.00000    90.00000    90.00000  Step:        6600  Bead:      19 positions{angstrom}  cell{angstrom}
       E  8.36555e+00 -8.24966e+01 -5.26768e+01
       E  1.20927e+01  9.51978e-01 -4.28888e+01
       E  5.23174e+01 -2.30790e+01 -1.47643e+01
3
# CELL(abcABC): 1322.94304  1322.94304  1322.94304    90.00000    90.00000    90.00000  Step:        6700  Bead:      19 positions{angstrom}  cell{angstrom}
       E -3.46025e+01 -1.20418e+02 -4.34497e+01
       E  1.39424e+01 -5.91270e-01 -7.26264e-01
       E  5.07788e+01 -2.86110e+00  2.44765e+01
3
# CELL(abcABC): 1322.94304  1322.94304  1322.94304    90.00000    90.00000    90.00000  Step:        6800  Bead:      19 positions{angstrom}  cell{angstrom}
       E -4.78460e+00 -9.83304e+01 -6.34739e+01
       E -6.33560e+00 -4.47138e+01 -3.10896e+01
       E  3.24108e+01 -2.65383e+01 -4.61815e+01
3
# CELL(abcABC): 1322.94304  1322.94304  1322.94304    90.00000    90.00000    90.00000  Step:        6900  Bead:      19 positions{angstrom}  cell{angstrom}
       E  1.43771e+01 -8.03510e+01 -3.94659e+01
       E  1.09753e+01 -3.38825e+01 -1.52389e+01
       E -8.69191e+00 -1.33290e+01 -4.72210e+01
3
# CELL(abcABC): 1322.94304  1322.94304  1322.94304    90.00000    90.00000    90.00000  Step:        7000  Bead:      19 positions{angstrom}  cell{angstrom}
       E  3.55954e+01 -5.32974e+01  6.49696e+00
       E  8.89108e+00 -2.67205e-02 -3.08780e+01
       E  7.23470e+00  3.70239e+00 -5.07260e+01
3
# CELL(abcABC): 1322.94304  1322.94304  1322.94304    90.00000    90.00000    90.00000  Step:        7100  Bead:      19 positions{angstrom}  cell{angstrom}
       E  2.80168e+01 -3.37975e+01  9.55721e+00
       E  2.52020e+00  1.20650e+00  1.27153e+01
       E  3.63217e+01  1.44803e+01 -5.78712e+01
3
# CELL(abcABC): 1322.94304  1322.94304  1322.94304    90.00000    90.00000    90.00000  Step:        7200  Bead:      19 positions{angstrom}  cell{angstrom}
       E  4.41330e+01 -3.78406e+01 -3.25737e+01
       E -2.82514e+01  3.40223e+01  2.82189e+01
       E  4.24092e+01  5.20163e+01 -2.32463e+01
3
# CELL(abcABC): 1322.94304  1322.94304  1322.94304    90.00000    90.00000    90.00000  Step:        7300  Bead:      19 positions{angstrom}  cell{angstrom}
       E  4.62421e+01 -2.86262e+01 -3.84076e+01
       E -1.30325e+01  4.80315e+01  1.75246e+01
       E  3.26327e+01  5.75818e+01 -9.55994e+00
3
# CELL(abcABC): 1322.94304  1322.94304  1322.94304    90.00000    90.00000    90.00000  Step:        7400  Bead:      19 positions{angstrom}  cell{angstrom}
       E -1.67279e+01 -4.40753e+01 -2.81636e+01
       E -8.28118e+00  8.16147e+00 -2.59293e+01
       E  3.51290e+01  6.11379e+01  1.98710e+00
3
# CELL(abcABC): 1322.94304  1322.94304  1322.94304    90.00000    90.00000    90.00000  Step:        7500  Bead:      19 positions{angstrom}  cell{angstrom}
       E  9.32038e+00 -6.71459e+01 -6.73719e+01
       E -2.93630e+01 -8.72407e+00 -8.82792e+00
       E  7.55249e+01  3.49680e+01  9.73763e+00
3
# CELL(abcABC): 1322.94304  1322.94304  1322.94304    90.00000    90.00000    90.00000  Step:        7600  Bead:      19 positions{angstrom}  cell{angstrom}
       E -1.52604e+01 -6.59690e+01 -4.28088e+01
       E -6.11958e-01 -5.18934e+01 -3.21177e+01
       E -3.81871e+00  5.50768e+00 -9.51736e+00
3
# CELL(abcABC): 1322.94304  1322.94304  1322.94304    90.00000    90.00000    90.00000  Step:        7700  Bead:      19 positions{angstrom}  cell{angstrom}
       E  1.61016e+01 -5.92982e+01 -2.25069e+01
       E  3.49914e+00 -2.45422e+01 -2.90798e+01
       E  3.20199e+01 -4.55984e+01 -3.46013e+01
3
# CELL(abcABC): 1322.94304  1322.94304  1322.94304    90.00000    90.00000    90.00000  Step:        7800  Bead:      19 positions{angstrom}  cell{angstrom}
       E  1.20527e+01 -5.70957e+01 -5.98764e+01
       E  1.73071e+01 -1.38573e+01 -1.06757e+01
       E  7.15031e-01 -5.33884e+01 -3.64263e+01
3
# CELL(abcABC): 1322.94304  1322.94304  1322.94304    90.00000    90.00000    90.00000  Step:        7900  Bead:      19 positions{angstrom}  cell{angstrom}
       E  2.79349e+01 -4.08252e+01 -9.08842e+00
       E  1.34349e+01  4.60494e+00 -5.27589e+01
       E -3.79389e+01 -4.05934e+01 -6.13625e+01
3
# CELL(abcABC): 1322.94304  1322.94304  1322.94304    90.00000    90.00000    90.00000  Step:        8000  Bead:      19 positions{angstrom}  cell{angstrom}
       E  2.28838e+01  7.87043e+00 -1.83783e+01
       E -1.56422e+01  1.23137e+01 -6.61299e+00
       E  1.26605e+01 -3.27493e+01 -5.90584e+01
3
# CELL(abcABC): 1322.94304  1322.94304  1322.94304    90.00000    90.00000    90.00000  Step:        8100  Bead:      19 positions{angstrom}  cell{angstrom}
       E  8.02622e+00  7.90692e+00 -4.73132e+01
       E -6.88115e+00  2.51332e+01 -4.42575e-03
       E -5.10692e+00 -2.37662e+01 -1.42284e+00
3
# CELL(abcABC): 1322.94304  1322.94304  1322.94304    90.00000    90.00000    90.00000  Step:        8200  Bead:      19 positions{angstrom}  cell{angstrom}
       E  8.95224e+00  1.64171e+01 -6.21644e+01
       E -2.10150e+01 -1.90644e+01 -9.64714e+00
       E -1.35870e+01 -4.92738e+01  6.15504e+01
3
# CELL(abcABC): 1322.94304  1322.94304  1322.94304    90.00000    90.00000    90.00000  Step:        8300  Bead:      19 positions{angstrom}  cell{angstrom}
       E  1.90367e+01  2.35014e+01 -2.40274e+01
       E -1.72518e+01  1.70382e+01 -8.82813e+00
       E -1.48636e+01 -5.54708e+01  5.87709e+01
3
# CELL(abcABC): 1322.94304  1322.94304  1322.94304    90.00000    90.00000    90.00000  Step:        8400  Bead:      19 positions{angstrom}  cell{angstrom}
       E -2.10529e+01  4.66698e+00 -2.52540e+01
       E  2.61268e+01  2.70451e+01  6.72156e-01
       E -1.34299e+01 -6.50500e+01  5.33271e+01
3
# CELL(abcABC): 1322.94304  1322.94304  1322.94304    90.00000    90.00000    90.00000  Step:        8500  Bead:      19 positions{angstrom}  cell{angstrom}
       E -7.85839e+00 -3.34754e+01 -4.64591e+01
       E  4.73050e+01  2.87303e+01 -2.78422e+01
       E  3.93895e+00 -2.81032e+01  5.79217e+01
3
# CELL(abcABC): 1322.94304  1322.94304  1322.94304    90.00000    90.00000    90.00000  Step:        8600  Bead:      19 positions{angstrom}  cell{angstrom}
       E  7.79943e+00 -2.34167e+01 -2.15739e+01
       E  2.79865e+01  5.14691e+00 -2.15031e+01
       E  2.39703e+01 -2.59474e+01  4.58011e+01
3
# CELL(abcABC): 1322.94304  1322.94304  1322.94304    90.00000    90.00000    90.00000  Step:        8700  Bead:      19 positions{angstrom}  cell{angstrom}
       E -1.37427e+01 -3.60924e+00  1.04028e+01
       E  2.37556e+01  4.96076e+00 -2.43726e+00
       E  4.48182e+01 -3.25347e+01  5.26754e+01
3
# CELL(abcABC): 1322.94304  1322.94304  1322.94304    90.00000    90.00000    90.00000  Step:        8800  Bead:      19 positions{angstrom}  cell{angstrom}
       E  6.11285e-01  2.41865e+01 -2.36081e+01
       E  7.44917e+00  1.17375e+01 -9.35257e+00
       E  4.68701e+01 -6.05233e+01  2.94068e+01
3
# CELL(abcABC): 1322.94304  1322.94304  1322.94304    90.00000    90.00000    90.00000  Step:        8900  Bead:      19 positions{angstrom}  cell{angstrom}
       E -5.16638e+01  4.76358e+01  2.84646e+01
       E -9.06562e+00  1.40517e+01  1.42433e+01
       E  5.30647e+01 -7.04585e+01  4.94972e+00
3
# CELL(abcABC): 1322.94304  1322.94304  1322.94304    90.00000    90.00000    90.00000  Step:        9000  Bead:      19 positions{angstrom}  cell{angstrom}
       E -5.20973e+01  3.64068e+01  4.54325e+01
       E  2.34403e+00  2.22681e+01  7.10657e+01
       E  3.61835e+01 -5.59127e+01  3.04271e+01
3
# CELL(abcABC): 1322.94304  1322.94304  1322.94304    90.00000    90.00000    90.00000  Step:        9100  Bead:      19 positions{angstrom}  cell{angstrom}
       E -3.59457e-02  2.72537e+01  6.61072e+00
       E  3.11565e+01 -3.01037e+01  8.45977e+01
       E  3.96224e+01  1.05713e+01  1.43215e+01
3
# CELL(abcABC): 1322.94304  1322.94304  1322.94304    90.00000    90.00000    90.00000  Step:        9200  Bead:      19 positions{angstrom}  cell{angstrom}
       E  9.83237e+00  2.63765e+01  1.50804e+01
       E -1.25073e+01 -5.27647e+00  4.02845e+01
       E  1.62301e+01 -5.40996e+01 -1.21837e+01
3
# CELL(abcABC): 1322.94304  1322.94304  1322.94304    90.00000    90.00000    90.00000  Step:        9300  Bead:      19 positions{angstrom}  cell{angstrom}
       E  8.97416e-01  1.08002e+01 -1.47672e+01
       E -3.66889e+01  2.55871e+01  3.13870e+01
       E -2.26816e+01 -5.34473e+01 -7.15131e+00
3
# CELL(abcABC): 1322.94304  1322.94304  1322.94304    90.00000    90.00000    90.00000  Step:        9400  Bead:      19 positions{angstrom}  cell{angstrom}
       E -2.87801e+01  4.58083e+01 -5.83691e+01
       E -4.33160e+01 -3.30014e+01  3.18246e+01
       E  9.63184e+00 -5.23676e+01  7.33117e+00
3
# CELL(abcABC): 1322.94304  1322.94304  1322.94304    90.00000    90.00000    90.00000  Step:        9500  Bead:      19 positions{angstrom}  cell{angstrom}
       E  2.23755e+01  4.67256e+01 -5.27072e+01
       E -3.10339e+00 -4.21744e+01  2.26408e+01
       E  9.16319e+00 -1.48635e+01  3.34813e+01
3
# CELL(abcABC): 1322.94304  1322.94304  1322.94304    90.00000    90.00000    90.00000  Step:        9600  Bead:      19 positions{angstrom}  cell{angstrom}
       E  7.55086e+00  1.66747e+01 -6.14147e+01
       E  3.01895e+01 -6.01192e+01 -7.11150e+00
       E -9.98541e+00 -2.16939e+01  1.79547e+01
3
# CELL(abcABC): 1322.94304  1322.94304  1322.94304    90.00000    90.00000    90.00000  Step:        9700  Bead:      19 positions{angstrom}  cell{angstrom}
       E  5.28741e+00 -2.34282e+01 -4.96984e+01
       E  1.15911e+01 -7.81146e+01  1.90030e+01
       E -7.10489e+00  1.27735e+01  1.48758e+01
3
# CELL(abcABC): 1322.94304  1322.94304  1322.94304    90.00000    90.00000    90.00000  Step:        9800  Bead:      19 positions{angstrom}  cell{angstrom}
       E -1.65660e+01 -5.76614e+01 -3.25734e+01
       E  2.05563e+00 -8.70297e+01  9.58282e+00
       E  3.36484e+00 -1.68951e+01  4.32621e+01
3