3
# CELL(abcABC): 1322.94304  1322.94304  1322.94304    90.00000    90.00000    90.00000  Step:           0  Bead:      18 positions{angstrom}  cell{angstrom}
       E  0.00000e+00  0.00000e+00  0.00000e+00
       E  0.00000e+00  0.00000e+00  0.00000e+00
       E  0.00000e+00  0.00000e+00  0.00000e+00
3
# CELL(abcABC): 1322.94304  1322.94304  1322.94304    90.00000    90.00000    90.00000  Step:         100  Bead:      18 positions{angstrom}  cell{angstrom}
       E  2.73506e+01 -1.22406e+01 -2.72116e+01
       E -8.43954e+00 -5.02395e+01 -1.70710e+01
       E -1.05570e+01  3.27379e+01 -3.23867e+01
3
# CELL(abcABC): 1322.94304  1322.94304  1322.94304    90.00000    90.00000    90.00000  Step:         200  Bead:      18 positions{angstrom}  cell{angstrom}
       E  1.61176e+01  1.12445e+01  6.52967e+00
       E  1.15191e+01 -4.95226e+01 -2.40901e+01
       E  7.30345e+00  4.06000e+01 -1.75594e+01
3
# CELL(abcABC): 1322.94304  1322.94304  1322.94304    90.00000    90.00000    90.00000  Step:         300  Bead:      18 positions{angstrom}  cell{angstrom}
       E  8.43238e+00 -8.94468e+00  1.78791e+01
       E  1.10293e+01 -2.02263e+00 -1.47658e+01
       E -1.19075e+01  5.42249e+01 -2.29779e+01
3
# CELL(abcABC): 1322.94304  1322.94304  1322.94304    90.00000    90.00000    90.00000  Step:         400  Bead:      18 positions{angstrom}  cell{angstrom}
       E -1.94105e+01  3.26301e+01  2.75469e+01
       E  5.69726e+01  1.35598e+01 -2.38091e+00
       E -2.58216e+01  2.73555e+01 -7.40472e-01
3
# CELL(abcABC): 1322.94304  1322.94304  1322.94304    90.00000    90.00000    90.00000  Step:         500  Bead:      18 positions{angstrom}  cell{angstrom}
       E -8.48821e+00  3.44213e+00  4.80218e+00
       E  3.52367e+01  5.23435e+00  1.16213e+00
       E -8.86087e+00 -2.12625e+01  2.51427e+01
3
# CELL(abcABC): 1322.94304  1322.94304  1322.94304    90.00000    90.00000    90.00000  Step:         600  Bead:      18 positions{angstrom}  cell{angstrom}
       E -1.00406e+00 -2.74695e+01 -2.00106e+01
       E  1.21632e+01  7.35248e+00 -1.38674e+01
       E  2.99554e+00 -1.91074e+01  2.25473e+01
3
# CELL(abcABC): 1322.94304  1322.94304  1322.94304    90.00000    90.00000    90.00000  Step:         700  Bead:      18 positions{angstrom}  cell{angstrom}
       E  1.20287e+01  5.84784e+00  1.43468e+01
       E  4.87197e+01  1.46233e+01 -3.24578e+00
       E  1.66501e+00 -2.48086e+01  2.19181e+01
3
# CELL(abcABC): 1322.94304  1322.94304  1322.94304    90.00000    90.00000    90.00000  Step:         800  Bead:      18 positions{angstrom}  cell{angstrom}
       E -2.67858e+00  7.01419e+00  1.44160e+01
       E  3.89154e+01  2.97446e+01  1.54850e+01
       E -3.05792e+01 -1.19929e+01  8.40488e+01
3
# CELL(abcABC): 1322.94304  1322.94304  1322.94304    90.00000    90.00000    90.00000  Step:         900  Bead:      18 positions{angstrom}  cell{angstrom}
       E -3.14894e+01  3.97212e+01 -4.70200e+01
       E  3.06705e+01  3.45248e+01 -2.35203e+01
       E -3.67234e+01 -2.18695e+01  6.56195e+01
3
# CELL(abcABC): 1322.94304  1322.94304  1322.94304    90.00000    90.00000    90.00000  Step:        1000  Bead:      18 positions{angstrom}  cell{angstrom}
       E -4.90926e+00  2.61843e+00 -3.49892e+01
       E -1.68441e+01  6.59082e+00 -3.92545e+01
       E -2.62326e+01 -2.37106e+01  5.26388e+01
3
# CELL(abcABC): 1322.94304  1322.94304  1322.94304    90.00000    90.00000    90.00000  Step:        1100  Bead:      18 positions{angstrom}  cell{angstrom}
       E  3.06276e+01 -1.95312e+01 -4.38620e+01
       E  8.82434e+00  2.00470e+01 -2.97061e+01
       E -1.65032e+01  2.06897e+01  1.59567e+01
3
# CELL(abcABC): 1322.94304  1322.94304  1322.94304    90.00000    90.00000    90.00000  Step:        1200  Bead:      18 positions{angstrom}  cell{angstrom}
       E  1.02938e+00  1.08473e+01 -7.50303e+01
       E  2.15027e+01 -9.45552e+00 -2.76228e+00
       E  1.01454e+01  5.80958e+01 -1.44298e+01
3
# CELL(abcABC): 1322.94304  1322.94304  1322.94304    90.00000    90.00000    90.00000  Step:        1300  Bead:      18 positions{angstrom}  cell{angstrom}
       E -1.59067e+01  2.17094e+01 -6.31522e+01
       E  3.96665e+01 -2.41172e+01 -1.96542e+01
       E  1.61776e+00  1.12943e+01 -2.76173e+01
3
# CELL(abcABC): 1322.94304  1322.94304  1322.94304    90.00000    90.00000    90.00000  Step:        1400  Bead:      18 positions{angstrom}  cell{angstrom}
       E -8.34751e+00  1.86047e+01 -5.13960e+01
       E  2.89157e+00  2.15593e+01 -3.23198e+01
       E  5.88406e+00 -5.44357e+00 -8.51005e+00
3
# CELL(abcABC): 1322.94304  1322.94304  1322.94304    90.00000    90.00000    90.00000  Step:        1500  Bead:      18 positions{angstrom}  cell{angstrom}
       E  5.93885e+00  3.69639e+01 -4.11502e+01
       E -3.38972e+01  4.12141e+01  5.20888e+00
       E -1.81823e+01  6.32063e+00 -2.76805e+01
3
# CELL(abcABC): 1322.94304  1322.94304  1322.94304    90.00000    90.00000    90.00000  Step:        1600  Bead:      18 positions{angstrom}  cell{angstrom}
       E -2.60311e+01  7.26747e+00 -3.46188e+01
       E -7.13855e+00  4.74835e+01  5.93041e+00
       E -7.44895e+00  4.25586e-01 -2.91202e+01
3
# CELL(abcABC): 1322.94304  1322.94304  1322.94304    90.00000    90.00000    90.00000  Step:        1700  Bead:      18 positions{angstrom}  cell{angstrom}
       E -4.43763e+00  3.54755e+01  1.21307e+01
       E -3.30218e+01  6.82234e+01  3.45534e+01
       E -2.05419e+01  3.48897e+01  2.31482e+01
3
# CELL(abcABC): 1322.94304  1322.94304  1322.94304    90.00000    90.00000    90.00000  Step:        1800  Bead:      18 positions{angstrom}  cell{angstrom}
       E -2.48268e+00  2.46708e+01  4.27249e+01
       E -6.47507e+01  7.80596e+01  2.45177e+01
       E -6.63876e+01  6.01664e+01  4.10696e+01
3
# CELL(abcABC): 1322.94304  1322.94304  1322.94304    90.00000    90.00000    90.00000  Step:        1900  Bead:      18 positions{angstrom}  cell{angstrom}
       E  2.45666e+01  2.10231e+00  5.82556e+01
       E -6.41865e+01  5.56424e+01  2.45035e+01
       E -1.00422e+02  4.82198e+01  8.93528e+00
3
# CELL(abcABC): 1322.94304  1322.94304  1322.94304    90.00000    90.00000    90.00000  Step:        2000  Bead:      18 positions{angstrom}  cell{angstrom}
       E -2.08265e+01 -2.72561e+01  6.85950e+01
       E -7.73456e+01  4.30831e+01  1.51606e+01
       E -7.90287e+01  6.89483e+01  2.94010e+01
3
# CELL(abcABC): 1322.94304  1322.94304  1322.94304    90.00000    90.00000    90.00000  Step:        2100  Bead:      18 positions{angstrom}  cell{angstrom}
       E -3.52177e+01 -9.84770e+00  4.63052e+01
       E -5.88186e+01  2.87809e+01  2.34361e+01
       E -8.70985e+01  8.74514e+01  2.10046e+01
3
# CELL(abcABC): 1322.94304  1322.94304  1322.94304    90.00000    90.00000    90.00000  Step:        2200  Bead:      18 positions{angstrom}  cell{angstrom}
       E -1.98538e+01 -2.41182e+01  4.02823e+01
       E -2.42126e+01 -1.87091e+01 -1.70282e+01
       E -5.90455e+01  4.45126e+01  1.56734e+01
3
# CELL(abcABC): 1322.94304  1322.94304  1322.94304    90.00000    90.00000    90.00000  Step:        2300  Bead:      18 positions{angstrom}  cell{angstrom}
       E -5.53488e+01 -4.37935e+01  4.99327e+01
       E -1.73211e+01  9.98667e+00  9.12110e+00
       E -5.06859e+00  1.80451e+01  1.67189e+01
3
# CELL(abcABC): 1322.94304  1322.94304  1322.94304    90.00000    90.00000    90.00000  Step:        2400  Bead:      18 positions{angstrom}  cell{angstrom}
       E -4.53970e+01 -5.15455e+01  1.78242e+01
       E -1.91238e+01  2.03790e+01 -1.19154e+01
       E -1.15748e+01  1.35990e+01  1.76770e+01
3
# CELL(abcABC): 1322.94304  1322.94304  1322.94304    90.00000    90.00000    90.00000  Step:        2500  Bead:      18 positions{angstrom}  cell{angstrom}
       E -4.31367e+01 -1.34139e+01 -9.85139e+00
       E -1.39321e+01 -4.22276e+01 -5.30243e+01
       E  2.03558e+01 -1.25853e+01  3.21682e+01
3
# CELL(abcABC): 1322.94304  1322.94304  1322.94304    90.00000    90.00000    90.00000  Step:        2600  Bead:      18 positions{angstrom}  cell{angstrom}
       E -2.54422e+01 -4.51892e+00  6.73379e+00
       E -5.79732e+01 -2.74282e+01 -4.62578e+01
       E  6.70890e-01 -4.83696e+01  2.71986e+01
3
# CELL(abcABC): 1322.94304  1322.94304  1322.94304    90.00000    90.00000    90.00000  Step:        2700  Bead:      18 positions{angstrom}  cell{angstrom}
       E -6.90942e+00  3.23606e+00  2.85848e+01
       E -5.86597e+01 -1.35134e+01  1.74074e+00
       E  2.01471e+01 -2.26003e+01  8.10872e+00
3
# CELL(abcABC): 1322.94304  1322.94304  1322.94304    90.00000    90.00000    90.00000  Step:        2800  Bead:      18 positions{angstrom}  cell{angstrom}
       E -5.13883e+01  4.22642e+00  5.17897e+01
       E -7.42086e+01 -4.13835e+01 -3.66412e+01
       E  7.35785e+00 -2.86753e+01  4.00313e+00
3
# CELL(abcABC): 1322.94304  1322.94304  1322.94304    90.00000    90.00000    90.00000  Step:        2900  Bead:      18 positions{angstrom}  cell{angstrom}
       E -5.81481e+01 -7.16739e+00  5.71958e+01
       E -7.18797e+01 -5.21384e+01  4.99782e+00
       E  3.89836e+00  1.11417e+01 -2.94890e+01
3
# CELL(abcABC): 1322.94304  1322.94304  1322.94304    90.00000    90.00000    90.00000  Step:        3000  Bead:      18 positions{angstrom}  cell{angstrom}
       E -3.16136e+01 -2.07562e+01  6.08411e+01
       E -3.52008e+01 -5.47293e+01  3.07313e+01
       E  8.52551e+00  2.53728e+01  1.89769e+01
3
# CELL(abcABC): 1322.94304  1322.94304  1322.94304    90.00000    90.00000    90.00000  Step:        3100  Bead:      18 positions{angstrom}  cell{angstrom}
       E -7.17529e+01 -2.55442e+01  5.80274e+01
       E -4.92840e+01 -3.56606e+01  2.70681e+01
       E  2.52410e+01  3.64793e+01  2.78661e+01
3
# CELL(abcABC): 1322.94304  1322.94304  1322.94304    90.00000    90.00000    90.00000  Step:        3200  Bead:      18 positions{angstrom}  cell{angstrom}
       E -4.19744e+01  7.05953e+00  4.69164e+00
       E -7.55454e+01 -1.43395e+01  4.69251e+01
       E  5.63225e+01  3.24458e+01  3.91469e+01
3
# CELL(abcABC): 1322.94304  1322.94304  1322.94304    90.00000    90.00000    90.00000  Step:        3300  Bead:      18 positions{angstrom}  cell{angstrom}
       E -4.32788e+01 -3.76921e+00  2.77670e+01
       E -5.39417e+01 -4.63513e+01  3.76509e+01
       E  1.60715e+01  6.22977e+01  3.42243e+01
3
# CELL(abcABC): 1322.94304  1322.94304  1322.94304    90.00000    90.00000    90.00000  Step:        3400  Bead:      18 positions{angstrom}  cell{angstrom}
       E -7.23900e+01 -5.98302e+00  6.83163e+01
       E -5.19692e+01  1.03164e+01  5.05075e+01
       E -8.97970e+00  4.45538e+01  2.94848e+01
3
# CELL(abcABC): 1322.94304  1322.94304  1322.94304    90.00000    90.00000    90.00000  Step:        3500  Bead:      18 positions{angstrom}  cell{angstrom}
       E -1.12766e+02  5.37160e+00  2.82034e+01
       E -6.66088e+00  3.08153e+00  3.02484e+01
       E -1.66501e+01 -5.26145e+00  4.80392e+01
3
# CELL(abcABC): 1322.94304  1322.94304  1322.94304    90.00000    90.00000    90.00000  Step:        3600  Bead:      18 positions{angstrom}  cell{angstrom}
       E -7.63422e+01  7.85019e-01  2.65741e+01
       E  1.47889e+01  1.06405e+01  2.12620e+01
       E -3.24487e+01  2.37087e+00  3.26129e+01
3
# CELL(abcABC): 1322.94304  1322.94304  1322.94304    90.00000    90.00000    90.00000  Step:        3700  Bead:      18 positions{angstrom}  cell{angstrom}
       E -7.42787e+01 -4.86213e+00 -3.61581e+01
       E  8.84275e+00  1.81892e+01  1.92567e+01
       E -6.00647e+01  1.74217e+01 -1.23659e+01
3
# CELL(abcABC): 1322.94304  1322.94304  1322.94304    90.00000    90.00000    90.00000  Step:        3800  Bead:      18 positions{angstrom}  cell{angstrom}
       E -9.94564e+01 -2.24888e+01 -2.65283e+01
       E -2.24261e+01 -4.06281e+01 -4.95955e+00
       E -5.40983e+01  1.58895e+01 -2.77466e+01
3
# CELL(abcABC): 1322.94304  1322.94304  1322.94304    90.00000    90.00000    90.00000  Step:        3900  Bead:      18 positions{angstrom}  cell{angstrom}
       E -1.13071e+02  5.14141e+00 -3.54349e+01
       E -5.06352e+01 -2.14526e+01  9.14948e+00
       E -2.46282e+01  6.52703e+00 -2.13172e+01
3
# CELL(abcABC): 1322.94304  1322.94304  1322.94304    90.00000    90.00000    90.00000  Step:        4000  Bead:      18 positions{angstrom}  cell{angstrom}
       E -1.11127e+02  1.84747e+01 -5.49805e+01
       E -3.93223e+01 -6.72283e+00  5.25594e+01
       E -1.56030e+01  3.17399e+01  3.24158e+01
3
# CELL(abcABC): 1322.94304  1322.94304  1322.94304    90.00000    90.00000    90.00000  Step:        4100  Bead:      18 positions{angstrom}  cell{angstrom}
       E -4.83494e+01  1.28240e+01 -1.02558e+02
       E -6.59157e+01  2.79143e+01 -6.24945e-01
       E -1.50575e+01 -1.07045e+01  3.08713e+01
3
# CELL(abcABC): 1322.94304  1322.94304  1322.94304    90.00000    90.00000    90.00000  Step:        4200  Bead:      18 positions{angstrom}  cell{angstrom}
       E -5.69370e+01 -2.90953e+01 -1.04367e+02
       E -7.86493e+01  4.01463e+01  3.67560e+01
       E -3.35856e+00 -6.53374e+00  5.50937e+01
3
# CELL(abcABC): 1322.94304  1322.94304  1322.94304    90.00000    90.00000    90.00000  Step:        4300  Bead:      18 positions{angstrom}  cell{angstrom}
       E -2.11955e+01  3.94858e+01 -3.37127e+01
       E -5.72147e+01  4.61502e+00 -4.82380e+00
       E  2.86270e+01 -3.91069e+00  4.98077e+01
3
# CELL(abcABC): 1322.94304  1322.94304  1322.94304    90.00000    90.00000    90.00000  Step:        4400  Bead:      18 positions{angstrom}  cell{angstrom}
       E -3.93815e+01  3.84081e+00 -3.59489e+01
       E -2.24327e+01  6.04480e+01 -2.96354e+01
       E  1.69762e+01 -4.60402e+00  1.59978e+00
3
# CELL(abcABC): 1322.94304  1322.94304  1322.94304    90.00000    90.00000    90.00000  Step:        4500  Bead:      18 positions{angstrom}  cell{angstrom}
       E -3.07527e+01  2.17508e+01 -5.42579e+01
       E -3.71086e+01  6.45041e+01 -2.61223e+01
       E -4.35068e+00 -1.35134e+01  2.41953e+01
3
# CELL(abcABC): 1322.94304  1322.94304  1322.94304    90.00000    90.00000    90.00000  Step:        4600  Bead:      18 positions{angstrom}  cell{angstrom}
       E -1.12312e+01  2.53294e+01 -3.90971e+01
       E -4.90812e+01  9.19688e+01 -3.47246e+01
       E  2.03495e+00  1.94615e+01  1.11569e-01
3
# CELL(abcABC): 1322.94304  1322.94304  1322.94304    90.00000    90.00000    90.00000  Step:        4700  Bead:      18 positions{angstrom}  cell{angstrom}
       E -2.13789e+01  3.69751e+01 -5.35031e+00
       E -3.91682e+01  3.90324e+01 -2.31889e+01
       E  6.10175e+00  3.27145e+01 -2.90598e+01
3
# CELL(abcABC): 1322.94304  1322.94304  1322.94304    90.00000    90.00000    90.00000  Step:        4800  Bead:      18 positions{angstrom}  cell{angstrom}
       E -4.12665e+01 -4.51307e+00 -1.09542e+01
       E -2.98564e+01  1.84333e+00 -2.58867e+01
       E  3.24726e+01  1.09939e+00  2.00182e+01
3
# CELL(abcABC): 1322.94304  1322.94304  1322.94304    90.00000    90.00000    90.00000  Step:        4900  Bead:      18 positions{angstrom}  cell{angstrom}
       E  1.16146e+01 -7.28837e+00  1.82096e+01
       E -9.18326e+00  1.61180e+01 -2.77413e+01
       E  3.49452e+01 -6.10878e+00  1.38524e+01
3
# CELL(abcABC): 1322.94304  1322.94304  1322.94304    90.00000    90.00000    90.00000  Step:        5000  Bead:      18 positions{angstrom}  cell{angstrom}
       E  2.95746e+00 -1.24961e+01  1.84479e+01
       E -3.43277e+00  1.70821e+01 -3.44776e+01
       E  1.25158e+01  2.26800e+00 -1.05110e+01
3
# CELL(abcABC): 1322.94304  1322.94304  1322.94304    90.00000    90.00000    90.00000  Step:        5100  Bead:      18 positions{angstrom}  cell{angstrom}
       E -2.72417e+01  5.90591e+00  1.57063e+01
       E -2.15394e+01  3.31996e+01 -5.28266e+01
       E -1.77182e-02 -2.98039e+01 -2.69827e+01
3
# CELL(abcABC): 1322.94304  1322.94304  1322.94304    90.00000    90.00000    90.00000  Step:        5200  Bead:      18 positions{angstrom}  cell{angstrom}
       E -5.11712e+01  9.18735e-01  8.31126e+00
       E  2.78657e+00  3.61371e+01 -2.19351e+01
       E -1.12933e+01  3.86739e+01 -7.64331e-01
3
# CELL(abcABC): 1322.94304  1322.94304  1322.94304    90.00000    90.00000    90.00000  Step:        5300  Bead:      18 positions{angstrom}  cell{angstrom}
       E -3.77507e+01 -3.04317e+00  9.90900e+00
       E  2.74675e+01  5.51783e+01 -2.11921e+01
       E -3.34743e+01  5.27579e+01  2.40800e+01
3
# CELL(abcABC): 1322.94304  1322.94304  1322.94304    90.00000    90.00000    90.00000  Step:        5400  Bead:      18 positions{angstrom}  cell{angstrom}
       E -2.39129e+01 -3.52869e+01  1.98170e+01
       E  3.99096e+01  1.08248e+01 -6.77665e+00
       E -4.39064e+01  1.42946e+01  7.37291e+01
3
# CELL(abcABC): 1322.94304  1322.94304  1322.94304    90.00000    90.00000    90.00000  Step:        5500  Bead:      18 positions{angstrom}  cell{angstrom}
       E -5.97617e+00 -1.59537e+00 -1.37993e+01
       E  2.93931e+00  1.04821e+01 -1.11806e+01
       E -5.37533e+01 -3.48655e+01  8.65460e+01
3
# CELL(abcABC): 1322.94304  1322.94304  1322.94304    90.00000    90.00000    90.00000  Step:        5600  Bead:      18 positions{angstrom}  cell{angstrom}
       E -2.33877e+01 -7.34064e+00 -5.86271e+00
       E -5.14153e+01 -1.87892e+01  1.57712e+01
       E -3.16175e+01 -6.07730e+00  2.20323e+01
3
# CELL(abcABC): 1322.94304  1322.94304  1322.94304    90.00000    90.00000    90.00000  Step:        5700  Bead:      18 positions{angstrom}  cell{angstrom}
       E -1.27667e+01 -5.22184e+01 -4.16279e+01
       E -4.84225e+01  2.10533e+01 -4.36397e+00
       E -4.84753e+01 -1.70797e+01 -2.96330e+00
3
# CELL(abcABC): 1322.94304  1322.94304  1322.94304    90.00000    90.00000    90.00000  Step:        5800  Bead:      18 positions{angstrom}  cell{angstrom}
       E -1.59880e+00 -1.60306e+01 -1.22871e+01
       E -2.13761e+01  3.39030e+01 -2.78098e+01
       E -2.82346e+01  2.84858e+01  5.31282e-02
3
# CELL(abcABC): 1322.94304  1322.94304  1322.94304    90.00000    90.00000    90.00000  Step:        5900  Bead:      18 positions{angstrom}  cell{angstrom}
       E  1.94539e+01 -1.34661e+01 -1.72438e+01
       E -1.90978e+01 -7.18651e+00  1.63197e+01
       E  6.13680e+00 -1.09300e+01 -3.06056e+01
3
# CELL(abcABC): 1322.94304  1322.94304  1322.94304    90.00000    90.00000    90.00000  Step:        6000  Bead:      18 positions{angstrom}  cell{angstrom}
       E -7.03376e+00 -5.56718e+01  1.47223e+01
       E  1.77210e+01  9.89869e+00  1.03741e+01
       E -3.40247e+00 -2.17616e+00 -4.12279e-01
3
# CELL(abcABC): 1322.94304  1322.94304  1322.94304    90.00000    90.00000    90.00000  Step:        6100  Bead:      18 positions{angstrom}  cell{angstrom}
       E -3.01545e+01 -5.30314e+01 -2.68575e+01
       E  5.55465e+01  3.68034e+00  1.01240e+01
       E  3.39643e+01  1.94359e+01 -3.68920e+01
3
# CELL(abcABC): 1322.94304  1322.94304  1322.94304    90.00000    90.00000    90.00000  Step:        6200  Bead:      18 positions{angstrom}  cell{angstrom}
       E -1.58187e+01 -3.86878e+01 -6.33163e+01
       E  9.80929e+01  2.29142e+01  1.29603e+01
       E  2.53925e+01 -2.85204e+01  2.25975e+00
3
# CELL(abcABC): 1322.94304  1322.94304  1322.94304    90.00000    90.00000    90.00000  Step:        6300  Bead:      18 positions{angstrom}  cell{angstrom}
       E -1.97106e+01 -3.26780e+01 -6.75107e+01
       E  1.03112e+02  9.14701e+00 -3.60576e+01
       E  2.25574e+01 -2.19512e+01 -8.16994e+00
3
# CELL(abcABC): 1322.94304  1322.94304  1322.94304    90.00000    90.00000    90.00000  Step:        6400  Bead:      18 positions{angstrom}  cell{angstrom}
       E  1.49078e+01 -3.80829e+01 -8.74249e+01
       E  3.27903e+01  2.40814e+01 -5.23722e+01
       E  4.42286e+01 -1.49464e+01 -2.57601e+01
3
# CELL(abcABC): 1322.94304  1322.94304  1322.94304    90.00000    90.00000    90.00000  Step:        6500  Bead:      18 positions{angstrom}  cell{angstrom}
       E  1.03994e+01 -6.48273e+01 -7.82929e+01
       E  7.98603e+00  2.87734e+01 -2.36998e+01
       E  6.25075e+01 -1.58287e+01 -4.25615e+01
3
# CELL(abcABC): 1322.94304  1322.94304  1322.94304    90.00000    90.00000    90.00000  Step:        6600  Bead:      18 positions{angstrom}  cell{angstrom}
       E  1.31775e+01 -8.14437e+01 -4.79558e+01
       E  1.18544e+01  1.25003e-01 -2.82772e+01
       E  7.05644e+01 -1.76071e+01 -1.32872e+01
3
# CELL(abcABC): 1322.94304  1322.94304  1322.94304    90.00000    90.00000    90.00000  Step:        6700  Bead:      18 positions{angstrom}  cell{angstrom}
       E -9.98175e+00 -1.14470e+02 -4.43544e+01
       E  3.12147e+00  6.47059e+00 -5.22217e+00
       E  3.88541e+01  4.34174e+00  2.44978e+01
3
# CELL(abcABC): 1322.94304  1322.94304  1322.94304    90.00000    90.00000    90.00000  Step:        6800  Bead:      18 positions{angstrom}  cell{angstrom}
       E -1.71956e+01 -9.74615e+01 -5.63548e+01
       E -1.15319e+01 -3.25552e+01 -1.82717e+01
       E  2.35027e+01 -1.26177e+01 -3.24925e+01
3
# CELL(abcABC): 1322.94304  1322.94304  1322.94304    90.00000    90.00000    90.00000  Step:        6900  Bead:      18 positions{angstrom}  cell{angstrom}
       E  3.67268e+00 -6.92040e+01 -1.99720e+01
       E  3.01125e+00 -4.22323e+01 -1.51689e+01
       E -9.50153e-01 -1.61023e+01 -4.52822e+01
3
# CELL(abcABC): 1322.94304  1322.94304  1322.94304    90.00000    90.00000    90.00000  Step:        7000  Bead:      18 positions{angstrom}  cell{angstrom}
       E  5.06606e+01 -5.65956e+01  2.13226e+01
       E  1.96516e+01 -1.37654e+01 -2.19862e+01
       E  9.04745e+00  1.50863e+01 -5.39904e+01
3
# CELL(abcABC): 1322.94304  1322.94304  1322.94304    90.00000    90.00000    90.00000  Step:        7100  Bead:      18 positions{angstrom}  cell{angstrom}
       E  3.82712e+01 -2.91838e+01  1.83245e+00
       E  1.07809e+01 -1.53551e+01  1.94620e+01
       E  5.64425e+01  2.20783e+01 -7.24220e+01
3
# CELL(abcABC): 1322.94304  1322.94304  1322.94304    90.00000    90.00000    90.00000  Step:        7200  Bead:      18 positions{angstrom}  cell{angstrom}
       E  4.14717e+01 -4.52784e+01 -4.76622e+01
       E -2.06877e+01  3.47782e+01  4.37539e+01
       E  2.01031e+01  4.77078e+01 -2.49575e+01
3
# CELL(abcABC): 1322.94304  1322.94304  1322.94304    90.00000    90.00000    90.00000  Step:        7300  Bead:      18 positions{angstrom}  cell{angstrom}
       E  3.67465e+01 -2.45173e+01 -5.37975e+01
       E -1.78454e+01  3.43578e+01  3.56306e+01
       E  2.74727e+01  5.21552e+01 -2.21452e+01
3
# CELL(abcABC): 1322.94304  1322.94304  1322.94304    90.00000    90.00000    90.00000  Step:        7400  Bead:      18 positions{angstrom}  cell{angstrom}
       E -1.17059e+00 -4.10125e+01 -3.51169e+01
       E -2.88335e+00  2.36925e+01 -8.67455e+00
       E  2.39493e+01  2.98674e+01  1.00664e+01
3
# CELL(abcABC): 1322.94304  1322.94304  1322.94304    90.00000    90.00000    90.00000  Step:        7500  Bead:      18 positions{angstrom}  cell{angstrom}
       E  1.07226e+01 -7.17809e+01 -5.13029e+01
       E -2.95317e+01 -1.17892e+01 -1.85063e+01
       E  6.70319e+01  4.56360e+01 -5.34470e-01
3
# CELL(abcABC): 1322.94304  1322.94304  1322.94304    90.00000    90.00000    90.00000  Step:        7600  Bead:      18 positions{angstrom}  cell{angstrom}
       E  7.97163e-01 -6.48146e+01 -2.93158e+01
       E  1.51739e+01 -2.56503e+01 -2.58600e+01
       E -1.61681e+00  5.11877e+00 -1.06510e+01
3
# CELL(abcABC): 1322.94304  1322.94304  1322.94304    90.00000    90.00000    90.00000  Step:        7700  Bead:      18 positions{angstrom}  cell{angstrom}
       E  1.95431e+01 -3.99147e+01 -1.75194e+01
       E  2.38658e+00 -2.33230e+01 -4.59319e+01
       E  3.09303e+01 -2.52582e+01 -2.88571e+01
3
# CELL(abcABC): 1322.94304  1322.94304  1322.94304    90.00000    90.00000    90.00000  Step:        7800  Bead:      18 positions{angstrom}  cell{angstrom}
       E  2.59550e+01 -6.64363e+01 -5.98706e+01
       E  1.62376e+01 -1.22979e+01 -1.58887e+01
       E -7.52467e+00 -5.16348e+01 -2.58485e+01
3
# CELL(abcABC): 1322.94304  1322.94304  1322.94304    90.00000    90.00000    90.00000  Step:        7900  Bead:      18 positions{angstrom}  cell{angstrom}
       E  3.76164e+01 -4.24439e+01 -2.86349e+01
       E -2.56607e+00  3.56431e+00 -4.51390e+01
       E -3.69564e+01 -5.16618e+01 -5.85001e+01
3
# CELL(abcABC): 1322.94304  1322.94304  1322.94304    90.00000    90.00000    90.00000  Step:        8000  Bead:      18 positions{angstrom}  cell{angstrom}
       E  2.49885e+01 -7.06672e+00 -1.22901e+01
       E -1.49778e+01  1.01933e+01 -9.45864e+00
       E  2.06422e+01 -4.33178e+01 -2.44824e+01
3
# CELL(abcABC): 1322.94304  1322.94304  1322.94304    90.00000    90.00000    90.00000  Step:        8100  Bead:      18 positions{angstrom}  cell{angstrom}
       E  1.88691e-01 -3.12801e+00 -7.33677e+01
       E -2.29380e+01  2.57237e+01  2.14501e+00
       E  9.14616e+00 -1.52046e+01 -3.25614e+00
3
# CELL(abcABC): 1322.94304  1322.94304  1322.94304    90.00000    90.00000    90.00000  Step:        8200  Bead:      18 positions{angstrom}  cell{angstrom}
       E  3.28871e+00  1.96649e+01 -7.69786e+01
       E -1.86780e+01 -1.11992e+01 -1.00107e+01
       E -1.85602e+01 -6.10270e+01  6.50453e+01
3
# CELL(abcABC): 1322.94304  1322.94304  1322.94304    90.00000    90.00000    90.00000  Step:        8300  Bead:      18 positions{angstrom}  cell{angstrom}
       E  3.20893e+01  2.31392e+01 -5.35696e+01
       E -2.17535e+01  1.90310e+01 -7.47145e+00
       E -6.00817e+00 -5.21945e+01  5.40171e+01
3
# CELL(abcABC): 1322.94304  1322.94304  1322.94304    90.00000    90.00000    90.00000  Step:        8400  Bead:      18 positions{angstrom}  cell{angstrom}
       E -1.04035e+01  1.36901e+01 -3.19102e+01
       E  3.18426e+01  4.94528e+01  1.17074e+01
       E -1.29988e+01 -5.80512e+01  5.96838e+01
3
# CELL(abcABC): 1322.94304  1322.94304  1322.94304    90.00000    90.00000    90.00000  Step:        8500  Bead:      18 positions{angstrom}  cell{angstrom}
       E -1.28809e+01 -4.12648e+01 -2.00778e+01
       E  4.22202e+01  1.99834e+01 -3.65515e+01
       E  6.03293e+00 -3.94839e+01  5.39899e+01
3
# CELL(abcABC): 1322.94304  1322.94304  1322.94304    90.00000    90.00000    90.00000  Step:        8600  Bead:      18 positions{angstrom}  cell{angstrom}
       E -1.45200e+00 -2.04500e+01 -3.22924e+01
       E  3.10388e+01  1.35114e+01 -1.18673e+01
       E  3.58454e+00 -2.84910e+01  6.05529e+01
3
# CELL(abcABC): 1322.94304  1322.94304  1322.94304    90.00000    90.00000    90.00000  Step:        8700  Bead:      18 positions{angstrom}  cell{angstrom}
       E  4.79237e+00 -1.55494e+01  5.85543e+00
       E  2.07189e+01  2.61977e+01 -2.64565e+01
       E  4.15953e+01 -3.22664e+01  4.86447e+01
3
# CELL(abcABC): 1322.94304  1322.94304  1322.94304    90.00000    90.00000    90.00000  Step:        8800  Bead:      18 positions{angstrom}  cell{angstrom}
       E  6.42882e+00  3.21533e+01 -6.41336e+00
       E  2.19135e+01 -3.38903e-01 -1.67417e+01
       E  6.00085e+01 -6.40705e+01  2.64775e+01
3
# CELL(abcABC): 1322.94304  1322.94304  1322.94304    90.00000    90.00000    90.00000  Step:        8900  Bead:      18 positions{angstrom}  cell{angstrom}
       E -4.75358e+01  3.68602e+01  1.23766e+01
       E -6.24215e+00 -5.00450e+00  4.09232e+00
       E  5.31141e+01 -7.20054e+01  1.58637e+01
3
# CELL(abcABC): 1322.94304  1322.94304  1322.94304    90.00000    90.00000    90.00000  Step:        9000  Bead:      18 positions{angstrom}  cell{angstrom}
       E -4.63200e+01  2.55014e+01  3.06571e+01
       E  1.76666e+01  1.83268e+01  6.64334e+01
       E  3.47355e+01 -3.95936e+01  3.23029e+01
3
# CELL(abcABC): 1322.94304  1322.94304  1322.94304    90.00000    90.00000    90.00000  Step:        9100  Bead:      18 positions{angstrom}  cell{angstrom}
       E -1.39073e+01  1.46298e+01  1.21668e+01
       E  1.50096e+01 -1.68103e+01  7.54682e+01
       E  3.45254e+01 -1.82505e+01  1.98321e+01
3
# CELL(abcABC): 1322.94304  1322.94304  1322.94304    90.00000    90.00000    90.00000  Step:        9200  Bead:      18 positions{angstrom}  cell{angstrom}
       E  2.77936e+01  7.47659e+00  2.10411e+01
       E -1.40813e+01 -4.54367e+00  4.62366e+01
       E  2.29030e+01 -5.53297e+01  8.35951e+00
3
# CELL(abcABC): 1322.94304  1322.94304  1322.94304    90.00000    90.00000    90.00000  Step:        9300  Bead:      18 positions{angstrom}  cell{angstrom}
       E -1.65775e+01  3.44091e+00 -1.04109e+01
       E -3.77043e+01  1.94558e+01  1.47543e+01
       E -9.20696e+00 -5.45442e+01 -2.33671e+00
3
# CELL(abcABC): 1322.94304  1322.94304  1322.94304    90.00000    90.00000    90.00000  Step:        9400  Bead:      18 positions{angstrom}  cell{angstrom}
       E -1.67042e+01  4.79765e+01 -2.03607e+01
       E -4.22352e+01 -1.81187e+01  2.81753e+01
       E  4.94519e+00 -5.33171e+01  2.59547e+01
3
# CELL(abcABC): 1322.94304  1322.94304  1322.94304    90.00000    90.00000    90.00000  Step:        9500  Bead:      18 positions{angstrom}  cell{angstrom}
       E  3.35780e+01  6.45523e+01 -5.21961e+01
       E -1.92549e+01 -4.23146e+01 -1.86227e-01
       E  2.05394e+01 -2.69224e+01  4.07026e+01
3
# CELL(abcABC): 1322.94304  1322.94304  1322.94304    90.00000    90.00000    90.00000  Step:        9600  Bead:      18 positions{angstrom}  cell{angstrom}
       E  1.55657e+01  1.78159e+01 -4.99813e+01
       E  1.70076e+01 -5.56789e+01  2.89192e+01
       E -1.36082e+01 -3.72430e+01  2.26867e+01
3
# CELL(abcABC): 1322.94304  1322.94304  1322.94304    90.00000    90.00000    90.00000  Step:        9700  Bead:      18 positions{angstrom}  cell{angstrom}
       E  1.12051e+01 -4.09690e+01 -4.26625e+01
       E  1.49075e+01 -6.96479e+01  1.83745e+01
       E -7.96915e+00  8.14267e+00  5.45260e+00
3
# CELL(abcABC): 1322.94304  1322.94304  1322.94304    90.00000    90.00000    90.00000  Step:        9800  Bead:      18 positions{angstrom}  cell{angstrom}
       E -2.77976e+01 -6.33948e+01 -2.47500e+01
       E  6.00538e+00 -9.33748e+01  9.74673e+00
       E  8.73647e+00 -2.73187e+01  4.75379e+01
3