#Bead    Energy (eV)
0     0.5893018315485387
1     0.5897112818401523
2     0.590525546101615
3     0.5917354571096896
4     0.5933273018234061
5     0.5952828162259196
6     0.5975792147443494
7     0.6001892330632923
8     0.6030812401652964
9     0.6062194178849942
10     0.6095640414358738
11     0.613071863578744
12     0.6166966197072588
13     0.6203896706871832
14     0.6241007766096672
15     0.6277789907094212
16     0.6313736559695382
17     0.6348354825243582
18     0.6381176532847895
19     0.6411769106701631
20     0.6439745922512665
21     0.6464775370745423
22     0.6486588295416607
23     0.6504983320597848
24     0.651982978162818
25     0.6531068153506445
26     0.6538707932511572
27     0.6542823096702158
28     0.6543545641923652
29     0.6541057419046468
30     0.653558094508213
31     0.652736960967436
32     0.6516697890802629
33     0.6503851969418801
34     0.6489121122635253
35     0.6472790260041522
36     0.6455133742349426
37     0.6436410473996959
38     0.6416860377990714
39     0.6396702074180803
40     0.6376131733214853
41     0.6355322827964691
42     0.63344266760245
43     0.6313573519783134
44     0.6292874096949217
45     0.6272421357634381
46     0.6252292463766718
47     0.6232550696451692
48     0.6213247379424827
49     0.6194423638326514
50     0.617611207432362
51     0.6158338236564233
52     0.6141121931136158
53     0.6124478353132491
54     0.610841901326912
55     0.6092952569308745
56     0.6078085477836918
57     0.6063822537694368
58     0.605016730339179
59     0.6037122429488647
60     0.6024689934484061
61     0.6012871383726192
62     0.6001668058143711
63     0.5991081031109775
64     0.5981111277319467
65     0.597175966359838
66     0.5963027033327872
67     0.5954914217943597
68     0.5947422014620214
69     0.5940551193971586
70     0.5934302487974744
71     0.5928676615650976
72     0.5923674233654778
73     0.5919295938065007
74     0.5915542244161933
75     0.5912413594403588
76     0.5909910362132678
77     0.5908032806559462
78     0.5906781082201514
79     0.5906155238000629
