#Bead    Energy (eV)
0     0.5908882656495444
1     0.5912886784796969
2     0.592085015822357
3     0.593268296990297
4     0.5948250452105119
5     0.5967372928129497
6     0.598982607653398
7     0.6015341562055038
8     0.6043608209585952
9     0.6074273907935952
10     0.6106948426181077
11     0.6141207305080784
12     0.6176596947510462
13     0.62126409749675
14     0.6248847842883147
15     0.6284719618984413
16     0.6319761731707215
17     0.6353493397128228
18     0.6385458342500869
19     0.6415235372389163
20     0.6442448279636804
21     0.6466774596085323
22     0.6487952712090285
23     0.6505786969921645
24     0.6520150449517572
25     0.6530985306352598
26     0.6538300676935798
27     0.654216832218151
28     0.6542716317108274
29     0.6540121203740327
30     0.6534599093523779
31     0.6526396231890776
32     0.6515779522046586
33     0.6503027453344473
34     0.6488421800931945
35     0.6472240368429457
36     0.6454750945082266
37     0.6436206552730673
38     0.6416841973342049
39     0.6396871479632361
40     0.6376487641523775
41     0.6355861049955768
42     0.6335140785030383
43     0.6314455454920294
44     0.6293914642096786
45     0.6273610610809625
46     0.6253620151420007
47     0.6234006460503094
48     0.6214820978625818
49     0.6196105129004492
50     0.6177891918944706
51     0.6160207381659756
52     0.6143071848646854
53     0.6126501052429159
54     0.6110507066472546
55     0.6095099093757734
56     0.6080284118358027
57     0.6066067435741971
58     0.6052453077796098
59     0.6039444148066283
60     0.6027043081681186
61     0.6015251843073012
62     0.6004072073118977
63     0.5993505195774926
64     0.5983552492795097
65     0.5974215153743285
66     0.5965494307211501
67     0.5957391038085744
68     0.5949906394718033
69     0.5943041389035183
70     0.5936796991964464
71     0.5931174125945835
72     0.592617365590083
73     0.592179637962497
74     0.5918043018309546
75     0.591491420768077
76     0.5912410490076465
77     0.5910532307665997
78     0.5909279996945074
79     0.5908653784571862
