3
# CELL(abcABC): 1322.94304  1322.94304  1322.94304    90.00000    90.00000    90.00000  Step:           0  Bead:       7 positions{angstrom}  cell{angstrom}
       E  0.00000e+00  0.00000e+00  0.00000e+00
       E  0.00000e+00  0.00000e+00  0.00000e+00
       E  0.00000e+00  0.00000e+00  0.00000e+00
3
# CELL(abcABC): 1322.94304  1322.94304  1322.94304    90.00000    90.00000    90.00000  Step:         100  Bead:       7 positions{angstrom}  cell{angstrom}
       E -2.64902e+01 -1.46820e+01 -1.75460e+00
       E -7.38724e+00  3.97666e+00 -9.35164e+00
       E -2.23312e+01  3.87659e+00 -1.61635e+01
3
# CELL(abcABC): 1322.94304  1322.94304  1322.94304    90.00000    90.00000    90.00000  Step:         200  Bead:       7 positions{angstrom}  cell{angstrom}
       E -1.70743e+01 -3.02678e+01 -4.69458e+01
       E  1.86735e+01  2.24535e+01 -5.28212e+01
       E -3.93419e+01  8.69328e+00 -9.22873e+00
3
# CELL(abcABC): 1322.94304  1322.94304  1322.94304    90.00000    90.00000    90.00000  Step:         300  Bead:       7 positions{angstrom}  cell{angstrom}
       E -1.33323e+01 -3.35541e+01 -2.90133e+01
       E -7.20634e-01  9.45503e+00 -3.84190e+01
       E -2.41333e+01  1.78083e+01  1.56985e+01
3
# CELL(abcABC): 1322.94304  1322.94304  1322.94304    90.00000    90.00000    90.00000  Step:         400  Bead:       7 positions{angstrom}  cell{angstrom}
       E  6.37584e+00  2.31662e+01  6.67232e+00
       E  4.29212e+00  8.39624e+00 -1.67064e+01
       E -7.75689e+00  4.46710e+01  2.72469e+01
3
# CELL(abcABC): 1322.94304  1322.94304  1322.94304    90.00000    90.00000    90.00000  Step:         500  Bead:       7 positions{angstrom}  cell{angstrom}
       E -1.04769e+01  1.32767e+01 -2.27808e+01
       E  6.58764e+00 -1.62529e+01  1.58970e+01
       E -2.49078e+01  2.05264e+01  1.68774e+01
3
# CELL(abcABC): 1322.94304  1322.94304  1322.94304    90.00000    90.00000    90.00000  Step:         600  Bead:       7 positions{angstrom}  cell{angstrom}
       E -3.37456e+01  2.68921e+01 -4.09730e+01
       E -1.88750e+01 -1.47691e+01  4.17407e+01
       E -3.80124e+00 -5.08165e+00  1.08470e+01
3
# CELL(abcABC): 1322.94304  1322.94304  1322.94304    90.00000    90.00000    90.00000  Step:         700  Bead:       7 positions{angstrom}  cell{angstrom}
       E  1.01662e+01  1.71224e+01 -6.27371e+01
       E -1.90234e+01  2.76555e+01  3.58922e+01
       E  1.23412e+01 -4.60148e+00  3.57169e+01
3
# CELL(abcABC): 1322.94304  1322.94304  1322.94304    90.00000    90.00000    90.00000  Step:         800  Bead:       7 positions{angstrom}  cell{angstrom}
       E -4.67993e+01  2.21256e+01 -5.68598e+01
       E  2.20866e+01  6.00380e+01  4.88938e+00
       E -6.11678e+01  3.37879e+01  9.04406e+01
3
# CELL(abcABC): 1322.94304  1322.94304  1322.94304    90.00000    90.00000    90.00000  Step:         900  Bead:       7 positions{angstrom}  cell{angstrom}
       E  8.40471e+00 -2.84427e+01 -3.04246e+01
       E  4.71510e+00  5.11130e-02 -1.29543e+01
       E -5.02127e+01  2.92527e+01  9.48898e+01
3
# CELL(abcABC): 1322.94304  1322.94304  1322.94304    90.00000    90.00000    90.00000  Step:        1000  Bead:       7 positions{angstrom}  cell{angstrom}
       E  1.33201e+01  2.47732e+01 -4.13644e+01
       E  1.55886e+01 -3.59106e+00 -4.21368e+01
       E -3.84135e+01 -8.43624e+00  9.09246e+01
3
# CELL(abcABC): 1322.94304  1322.94304  1322.94304    90.00000    90.00000    90.00000  Step:        1100  Bead:       7 positions{angstrom}  cell{angstrom}
       E  2.25530e+01  2.27585e+01 -7.50441e+01
       E  6.15647e+01 -2.09865e+01 -7.21682e+01
       E -4.00295e+01  2.41508e+00  6.12854e+01
3
# CELL(abcABC): 1322.94304  1322.94304  1322.94304    90.00000    90.00000    90.00000  Step:        1200  Bead:       7 positions{angstrom}  cell{angstrom}
       E  1.99721e+01  1.79043e+01 -8.02136e+01
       E  1.74178e+01 -1.22878e+01 -8.60012e+01
       E -5.61406e+01  1.21921e+01  5.16360e+01
3
# CELL(abcABC): 1322.94304  1322.94304  1322.94304    90.00000    90.00000    90.00000  Step:        1300  Bead:       7 positions{angstrom}  cell{angstrom}
       E -5.40209e+00  8.66416e+00 -8.11563e+01
       E  2.19702e+00 -5.31171e+01 -5.55740e+01
       E -2.65960e+01  3.78044e+01  3.82975e+01
3
# CELL(abcABC): 1322.94304  1322.94304  1322.94304    90.00000    90.00000    90.00000  Step:        1400  Bead:       7 positions{angstrom}  cell{angstrom}
       E -4.39644e+01  8.89517e+00 -7.88190e+01
       E  8.88813e-01 -4.20163e+01 -3.71223e+01
       E -5.51352e+01  4.15732e+01  3.29096e+01
3
# CELL(abcABC): 1322.94304  1322.94304  1322.94304    90.00000    90.00000    90.00000  Step:        1500  Bead:       7 positions{angstrom}  cell{angstrom}
       E -3.73957e+01  2.75630e+01 -7.50418e+01
       E -6.74741e+00 -2.37114e+01 -2.44218e+01
       E -5.20120e+01  4.31251e+01  3.50985e+01
3
# CELL(abcABC): 1322.94304  1322.94304  1322.94304    90.00000    90.00000    90.00000  Step:        1600  Bead:       7 positions{angstrom}  cell{angstrom}
       E -1.75904e+01  4.95862e+01 -4.27643e+01
       E -1.76009e+01 -8.61199e+00 -2.63573e+01
       E -4.25808e+01  6.33561e+01  1.57501e+01
3
# CELL(abcABC): 1322.94304  1322.94304  1322.94304    90.00000    90.00000    90.00000  Step:        1700  Bead:       7 positions{angstrom}  cell{angstrom}
       E  5.07366e+00  2.13679e+01 -6.54544e+00
       E -4.05736e+00  1.65543e+01  7.02759e+00
       E -1.52385e+01  7.92617e+01  2.35286e+01
3
# CELL(abcABC): 1322.94304  1322.94304  1322.94304    90.00000    90.00000    90.00000  Step:        1800  Bead:       7 positions{angstrom}  cell{angstrom}
       E -1.08485e+01  1.65586e+01 -7.59272e+00
       E -7.94901e-01  4.86496e+01  6.89329e-01
       E -4.70013e+01  7.08335e+01  9.04996e+01
3
# CELL(abcABC): 1322.94304  1322.94304  1322.94304    90.00000    90.00000    90.00000  Step:        1900  Bead:       7 positions{angstrom}  cell{angstrom}
       E -1.74037e+01  2.98008e+01  1.83685e+01
       E -9.20713e+01  2.44891e+01  2.68205e+01
       E -7.16928e+01  4.79008e+01  4.80118e+01
3
# CELL(abcABC): 1322.94304  1322.94304  1322.94304    90.00000    90.00000    90.00000  Step:        2000  Bead:       7 positions{angstrom}  cell{angstrom}
       E  6.86026e+00  7.49915e+00  5.61726e+01
       E -6.90196e+01  2.44617e+01  4.24701e+01
       E -7.62508e+01  3.44669e+01  8.35985e+00
3
# CELL(abcABC): 1322.94304  1322.94304  1322.94304    90.00000    90.00000    90.00000  Step:        2100  Bead:       7 positions{angstrom}  cell{angstrom}
       E -1.18502e+01 -1.70822e+01  5.36165e+01
       E -4.05118e+01  3.39924e+01  1.60834e+01
       E -6.55988e+01  3.35235e+01  4.71239e+00
3
# CELL(abcABC): 1322.94304  1322.94304  1322.94304    90.00000    90.00000    90.00000  Step:        2200  Bead:       7 positions{angstrom}  cell{angstrom}
       E -1.47430e+01 -5.07941e+01  4.87353e+01
       E -2.40731e+01 -3.20857e+01 -2.90817e+01
       E -4.41957e+01  7.87076e+01  1.60724e+01
3
# CELL(abcABC): 1322.94304  1322.94304  1322.94304    90.00000    90.00000    90.00000  Step:        2300  Bead:       7 positions{angstrom}  cell{angstrom}
       E -1.39664e+01 -8.87576e+01  5.93341e+01
       E -3.04873e+01 -2.56206e+01 -2.32387e+01
       E -2.62347e+01  8.81381e+01  3.13615e+01
3
# CELL(abcABC): 1322.94304  1322.94304  1322.94304    90.00000    90.00000    90.00000  Step:        2400  Bead:       7 positions{angstrom}  cell{angstrom}
       E -1.86931e+01 -6.27513e+01  2.85956e+01
       E  1.63992e+00 -3.41673e+01 -1.39685e+01
       E -2.79606e+01  6.19261e+01  4.05669e+01
3
# CELL(abcABC): 1322.94304  1322.94304  1322.94304    90.00000    90.00000    90.00000  Step:        2500  Bead:       7 positions{angstrom}  cell{angstrom}
       E -1.56568e+01 -3.75331e+01  6.26580e+01
       E -2.42959e+01 -3.17497e+01 -5.29212e+01
       E -4.14459e+00  2.99599e+01  5.53479e+01
3
# CELL(abcABC): 1322.94304  1322.94304  1322.94304    90.00000    90.00000    90.00000  Step:        2600  Bead:       7 positions{angstrom}  cell{angstrom}
       E  3.42458e+00 -6.02764e+01  8.08276e+01
       E -5.91470e+01 -4.00576e+01 -7.23023e+01
       E -1.09729e+01 -1.83116e+01  5.30900e+01
3
# CELL(abcABC): 1322.94304  1322.94304  1322.94304    90.00000    90.00000    90.00000  Step:        2700  Bead:       7 positions{angstrom}  cell{angstrom}
       E  1.06410e+01 -4.13354e+01  9.56449e+01
       E -8.22417e+01 -5.11813e+01 -4.65848e+01
       E  1.46490e+01 -1.13398e+00  2.77662e+01
3
# CELL(abcABC): 1322.94304  1322.94304  1322.94304    90.00000    90.00000    90.00000  Step:        2800  Bead:       7 positions{angstrom}  cell{angstrom}
       E -5.56502e+01 -4.94562e+01  1.09761e+01
       E -4.40758e+01 -6.25993e+01 -3.50595e+01
       E  2.54428e+01 -1.01913e+01  4.34249e+01
3
# CELL(abcABC): 1322.94304  1322.94304  1322.94304    90.00000    90.00000    90.00000  Step:        2900  Bead:       7 positions{angstrom}  cell{angstrom}
       E -4.60177e+01 -6.78336e+01 -1.39321e+01
       E -5.16108e+01 -3.67393e+01 -3.06973e+01
       E  6.54796e+01  1.55087e+01  3.73632e+01
3
# CELL(abcABC): 1322.94304  1322.94304  1322.94304    90.00000    90.00000    90.00000  Step:        3000  Bead:       7 positions{angstrom}  cell{angstrom}
       E -4.12149e+01 -4.54987e+01 -2.49674e+01
       E -4.29364e+01 -5.04202e+01  1.78000e+01
       E  5.56819e+01  2.87825e+01  3.80639e-01
3
# CELL(abcABC): 1322.94304  1322.94304  1322.94304    90.00000    90.00000    90.00000  Step:        3100  Bead:       7 positions{angstrom}  cell{angstrom}
       E -3.21666e+01 -5.64401e+01  1.01324e+01
       E -3.44085e+01 -7.93656e+01  6.07061e+01
       E  3.28960e+01  3.90668e+01  1.09249e+01
3
# CELL(abcABC): 1322.94304  1322.94304  1322.94304    90.00000    90.00000    90.00000  Step:        3200  Bead:       7 positions{angstrom}  cell{angstrom}
       E -5.77192e+01 -2.87492e+00  6.02119e+01
       E -8.77911e+01 -6.87394e+01  5.44317e+01
       E  4.60602e+01  3.81159e+01  2.12714e+00
3
# CELL(abcABC): 1322.94304  1322.94304  1322.94304    90.00000    90.00000    90.00000  Step:        3300  Bead:       7 positions{angstrom}  cell{angstrom}
       E -5.25217e+01 -4.68646e+01  3.98385e+01
       E -7.59565e+01 -3.06251e+01  5.26526e+01
       E  5.57467e+01  3.66228e+01  4.21053e+01
3
# CELL(abcABC): 1322.94304  1322.94304  1322.94304    90.00000    90.00000    90.00000  Step:        3400  Bead:       7 positions{angstrom}  cell{angstrom}
       E -7.67479e+01 -1.17000e+01  1.87995e+01
       E -8.36916e+01 -5.07710e+01  4.77781e+01
       E  2.64756e+00  5.24947e+01  6.09061e+01
3
# CELL(abcABC): 1322.94304  1322.94304  1322.94304    90.00000    90.00000    90.00000  Step:        3500  Bead:       7 positions{angstrom}  cell{angstrom}
       E -7.57403e+01 -1.55982e+01  2.59597e+01
       E -2.85888e+01 -7.09761e+01  3.60316e+01
       E  1.31807e+01  7.99394e+01  4.91000e+01
3
# CELL(abcABC): 1322.94304  1322.94304  1322.94304    90.00000    90.00000    90.00000  Step:        3600  Bead:       7 positions{angstrom}  cell{angstrom}
       E -6.65753e+01 -3.25112e+01  2.48865e+01
       E -7.68517e+00 -3.51718e+01  1.73289e+01
       E -3.44809e+01  5.36203e+01  1.12872e+01
3
# CELL(abcABC): 1322.94304  1322.94304  1322.94304    90.00000    90.00000    90.00000  Step:        3700  Bead:       7 positions{angstrom}  cell{angstrom}
       E -9.12633e+01 -2.84025e+01 -2.25796e+01
       E -1.52063e+00 -1.16794e+01  2.60431e+01
       E -3.92122e+01  2.82722e+01 -3.75302e+01
3
# CELL(abcABC): 1322.94304  1322.94304  1322.94304    90.00000    90.00000    90.00000  Step:        3800  Bead:       7 positions{angstrom}  cell{angstrom}
       E -8.10790e+01 -2.92918e+01 -3.84719e+01
       E -1.34688e+01 -3.65574e+01 -2.74330e+01
       E -4.43829e+01  2.00710e+00  3.91974e+00
3
# CELL(abcABC): 1322.94304  1322.94304  1322.94304    90.00000    90.00000    90.00000  Step:        3900  Bead:       7 positions{angstrom}  cell{angstrom}
       E -7.36641e+01  2.22785e+00 -1.31239e+01
       E -1.81923e+01 -3.17300e+01 -4.56516e+01
       E -9.90118e+00 -7.28353e+00  1.00909e+01
3
# CELL(abcABC): 1322.94304  1322.94304  1322.94304    90.00000    90.00000    90.00000  Step:        4000  Bead:       7 positions{angstrom}  cell{angstrom}
       E -1.23596e+02  2.43264e+01 -3.44692e+01
       E -3.12900e+01 -1.10342e+01 -6.02505e+00
       E -1.12700e+01 -3.33669e+00  1.85923e+01
3
# CELL(abcABC): 1322.94304  1322.94304  1322.94304    90.00000    90.00000    90.00000  Step:        4100  Bead:       7 positions{angstrom}  cell{angstrom}
       E -1.24262e+02  8.53467e+01 -6.15401e+01
       E  4.51931e+00  9.11539e+00  4.96985e+01
       E -3.05236e+01  2.82195e+01  4.75214e+01
3
# CELL(abcABC): 1322.94304  1322.94304  1322.94304    90.00000    90.00000    90.00000  Step:        4200  Bead:       7 positions{angstrom}  cell{angstrom}
       E -5.56635e+01  6.99232e+01 -3.28178e+01
       E -4.88763e+01  4.00312e+01  5.83240e+01
       E -2.72608e+01 -2.03446e-01  1.58047e+01
3
# CELL(abcABC): 1322.94304  1322.94304  1322.94304    90.00000    90.00000    90.00000  Step:        4300  Bead:       7 positions{angstrom}  cell{angstrom}
       E -4.18245e+01  1.00219e+01 -7.42884e+01
       E -5.41945e+01  3.69626e+01  6.66189e+01
       E -4.39009e+01 -1.54597e+01  1.10924e+01
3
# CELL(abcABC): 1322.94304  1322.94304  1322.94304    90.00000    90.00000    90.00000  Step:        4400  Bead:       7 positions{angstrom}  cell{angstrom}
       E -7.00839e+01  5.34806e+00 -6.98104e+01
       E -5.83378e+01  7.83955e+01  4.45465e+01
       E -2.71569e+01 -1.43099e+01 -7.94221e+00
3
# CELL(abcABC): 1322.94304  1322.94304  1322.94304    90.00000    90.00000    90.00000  Step:        4500  Bead:       7 positions{angstrom}  cell{angstrom}
       E -5.93886e+01  2.61438e+01 -7.30321e+01
       E -6.75210e+01  6.35400e+01  1.45386e+01
       E -1.90382e+01 -1.80943e+01  3.43620e+01
3
# CELL(abcABC): 1322.94304  1322.94304  1322.94304    90.00000    90.00000    90.00000  Step:        4600  Bead:       7 positions{angstrom}  cell{angstrom}
       E  6.07822e+00  5.94828e+01 -7.91654e+01
       E -6.34867e+01  2.59318e+01 -8.91678e+00
       E  1.31791e+01  5.81547e+00  3.46259e+01
3
# CELL(abcABC): 1322.94304  1322.94304  1322.94304    90.00000    90.00000    90.00000  Step:        4700  Bead:       7 positions{angstrom}  cell{angstrom}
       E -6.52630e-01  6.24880e+01 -7.48033e+01
       E -4.66235e+01  6.17066e+01 -3.01576e+01
       E  3.31213e+01  1.36979e+01 -6.05494e+00
3
# CELL(abcABC): 1322.94304  1322.94304  1322.94304    90.00000    90.00000    90.00000  Step:        4800  Bead:       7 positions{angstrom}  cell{angstrom}
       E  1.52049e+01  3.48451e+01 -1.49386e+01
       E -4.74832e+01  4.33143e+01 -1.29876e+01
       E  3.77632e+01  3.35311e+01 -2.84327e+01
3
# CELL(abcABC): 1322.94304  1322.94304  1322.94304    90.00000    90.00000    90.00000  Step:        4900  Bead:       7 positions{angstrom}  cell{angstrom}
       E  1.47215e+01  3.85470e+01 -1.82229e+01
       E -8.83451e+01 -2.13278e+01 -2.84318e+01
       E -8.14196e+00  6.39899e+00 -6.75837e+01
3
# CELL(abcABC): 1322.94304  1322.94304  1322.94304    90.00000    90.00000    90.00000  Step:        5000  Bead:       7 positions{angstrom}  cell{angstrom}
       E  3.30877e+01  3.68633e+01  1.39964e+01
       E -4.64934e+01 -3.40213e+01 -5.70054e+00
       E  1.02675e+01 -3.43270e+00 -6.98387e+01
3
# CELL(abcABC): 1322.94304  1322.94304  1322.94304    90.00000    90.00000    90.00000  Step:        5100  Bead:       7 positions{angstrom}  cell{angstrom}
       E  1.67442e+01  1.14553e-01  1.46727e-02
       E -5.56281e+01 -3.93100e+01 -2.23257e+01
       E -2.03146e+00  2.32704e+01 -1.15413e+01
3
# CELL(abcABC): 1322.94304  1322.94304  1322.94304    90.00000    90.00000    90.00000  Step:        5200  Bead:       7 positions{angstrom}  cell{angstrom}
       E  2.61218e+01  3.94341e+01  2.44693e+01
       E -5.40277e+01  4.87916e-01  1.21172e+01
       E -1.67865e+00  1.81931e+01 -5.51969e+00
3
# CELL(abcABC): 1322.94304  1322.94304  1322.94304    90.00000    90.00000    90.00000  Step:        5300  Bead:       7 positions{angstrom}  cell{angstrom}
       E  1.02964e+01  5.35655e+01  5.01101e+01
       E -3.25748e+01  2.77611e+01 -1.57559e+01
       E  3.76405e+01  3.79533e+01  1.68785e+01
3
# CELL(abcABC): 1322.94304  1322.94304  1322.94304    90.00000    90.00000    90.00000  Step:        5400  Bead:       7 positions{angstrom}  cell{angstrom}
       E  2.32474e+01  2.18531e+01  5.01210e+01
       E -5.40531e+01  1.15074e+01 -4.18806e+01
       E  6.57072e+00  1.28694e+01  3.50185e+01
3
# CELL(abcABC): 1322.94304  1322.94304  1322.94304    90.00000    90.00000    90.00000  Step:        5500  Bead:       7 positions{angstrom}  cell{angstrom}
       E -1.33233e+00  3.17799e+01  4.38104e+01
       E -5.71241e+01  9.40111e+00 -3.75232e+01
       E -1.16777e+00  1.41471e+01  4.88269e+01
3
# CELL(abcABC): 1322.94304  1322.94304  1322.94304    90.00000    90.00000    90.00000  Step:        5600  Bead:       7 positions{angstrom}  cell{angstrom}
       E  1.08331e+01  2.45755e+01  1.12832e+01
       E -2.79801e+01  2.08123e+01 -1.05658e+01
       E -3.27634e+01  1.87105e+01  5.80014e+01
3
# CELL(abcABC): 1322.94304  1322.94304  1322.94304    90.00000    90.00000    90.00000  Step:        5700  Bead:       7 positions{angstrom}  cell{angstrom}
       E -2.57372e+01  2.76595e+01 -1.13692e+01
       E  1.19732e+01  3.34529e+01 -1.82509e+01
       E -5.45266e+01  2.22309e+01  2.45830e+01
3
# CELL(abcABC): 1322.94304  1322.94304  1322.94304    90.00000    90.00000    90.00000  Step:        5800  Bead:       7 positions{angstrom}  cell{angstrom}
       E -1.39064e+01  1.60317e+01 -2.66802e+01
       E -9.73286e+00  1.72459e+01 -1.48987e+01
       E -2.89831e+01 -2.20975e+00  2.99014e+01
3
# CELL(abcABC): 1322.94304  1322.94304  1322.94304    90.00000    90.00000    90.00000  Step:        5900  Bead:       7 positions{angstrom}  cell{angstrom}
       E  5.92543e+00 -1.36796e+01  3.05339e+00
       E -3.25448e+01  2.67822e+01 -3.43796e+01
       E -1.45779e+01 -1.36659e+01  7.35840e+00
3
# CELL(abcABC): 1322.94304  1322.94304  1322.94304    90.00000    90.00000    90.00000  Step:        6000  Bead:       7 positions{angstrom}  cell{angstrom}
       E  3.24845e+01 -2.64656e+01 -1.24419e+01
       E -3.10859e+01 -3.23075e+00 -1.55107e+01
       E  1.08549e+01 -2.23421e+01  4.10631e-01
3
# CELL(abcABC): 1322.94304  1322.94304  1322.94304    90.00000    90.00000    90.00000  Step:        6100  Bead:       7 positions{angstrom}  cell{angstrom}
       E  4.58035e+01 -2.85818e+01 -4.47213e+01
       E  2.99661e+01  2.29882e+01  2.91411e+01
       E  2.02025e+01 -2.16255e+01 -2.40327e+01
3
# CELL(abcABC): 1322.94304  1322.94304  1322.94304    90.00000    90.00000    90.00000  Step:        6200  Bead:       7 positions{angstrom}  cell{angstrom}
       E  4.09540e+01 -4.56278e+01 -8.95329e+01
       E  6.73814e+01 -6.24918e+00 -4.50983e+00
       E  2.19760e+01 -4.70487e+00 -6.42294e+00
3
# CELL(abcABC): 1322.94304  1322.94304  1322.94304    90.00000    90.00000    90.00000  Step:        6300  Bead:       7 positions{angstrom}  cell{angstrom}
       E  4.59652e+01 -4.48305e+01 -6.22080e+01
       E  7.88398e+01 -3.48239e+01  8.48001e-01
       E  2.76360e+01 -2.17702e+01 -1.23819e+01
3
# CELL(abcABC): 1322.94304  1322.94304  1322.94304    90.00000    90.00000    90.00000  Step:        6400  Bead:       7 positions{angstrom}  cell{angstrom}
       E  8.29364e+00 -5.93994e+01 -9.87189e+01
       E  8.62563e+01 -4.18238e+01 -5.04847e+01
       E  4.97486e+00 -3.64071e+01  3.00534e+01
3
# CELL(abcABC): 1322.94304  1322.94304  1322.94304    90.00000    90.00000    90.00000  Step:        6500  Bead:       7 positions{angstrom}  cell{angstrom}
       E -1.77594e+01 -1.02047e+02 -1.05252e+02
       E  5.54868e+01 -4.32967e+01 -3.41979e+01
       E  1.09344e+01 -3.90649e+01  4.18607e+01
3
# CELL(abcABC): 1322.94304  1322.94304  1322.94304    90.00000    90.00000    90.00000  Step:        6600  Bead:       7 positions{angstrom}  cell{angstrom}
       E -8.62016e+00 -9.51494e+01 -1.43180e+02
       E -4.59765e+00 -2.77485e+01 -2.72774e+01
       E  1.96096e+01 -1.27359e+01  3.85423e+01
3
# CELL(abcABC): 1322.94304  1322.94304  1322.94304    90.00000    90.00000    90.00000  Step:        6700  Bead:       7 positions{angstrom}  cell{angstrom}
       E -1.08531e+00 -6.10290e+01 -1.25057e+02
       E  3.62655e+01 -4.54594e+01 -1.40585e+01
       E -4.88104e-01 -2.16570e+00  1.50898e+01
3
# CELL(abcABC): 1322.94304  1322.94304  1322.94304    90.00000    90.00000    90.00000  Step:        6800  Bead:       7 positions{angstrom}  cell{angstrom}
       E  1.55992e+00 -8.04951e+01 -6.95374e+01
       E  2.26929e+01 -7.94368e+00 -8.80712e+00
       E  4.14368e-01  4.30662e+01  2.65683e+00
3
# CELL(abcABC): 1322.94304  1322.94304  1322.94304    90.00000    90.00000    90.00000  Step:        6900  Bead:       7 positions{angstrom}  cell{angstrom}
       E -9.80390e+00 -3.80214e+01 -6.97508e+01
       E  2.46530e+01 -3.27191e+01 -3.10277e+01
       E -1.76873e+01  3.17038e+01  1.43363e+01
3
# CELL(abcABC): 1322.94304  1322.94304  1322.94304    90.00000    90.00000    90.00000  Step:        7000  Bead:       7 positions{angstrom}  cell{angstrom}
       E -5.31326e+01 -4.93483e+01 -5.34732e+01
       E -3.17957e+00  4.84070e+00 -1.16258e+01
       E  2.90354e+01  3.10783e+01  3.54632e+01
3
# CELL(abcABC): 1322.94304  1322.94304  1322.94304    90.00000    90.00000    90.00000  Step:        7100  Bead:       7 positions{angstrom}  cell{angstrom}
       E -2.14103e+01 -4.21104e+01 -1.29531e+01
       E -2.95406e+00  1.46075e+01  3.55583e+01
       E -2.49447e+00  1.99359e+01  6.31672e+01
3
# CELL(abcABC): 1322.94304  1322.94304  1322.94304    90.00000    90.00000    90.00000  Step:        7200  Bead:       7 positions{angstrom}  cell{angstrom}
       E -2.52193e+01 -2.37159e+01 -2.52288e+01
       E -1.99674e+01  2.98487e+01  3.74292e+01
       E  3.95731e+01  3.76001e+01  1.99004e+01
3
# CELL(abcABC): 1322.94304  1322.94304  1322.94304    90.00000    90.00000    90.00000  Step:        7300  Bead:       7 positions{angstrom}  cell{angstrom}
       E  8.31161e-01 -2.60871e+01 -1.06543e+01
       E -7.00371e+00  4.70244e+01  3.34083e+01
       E  8.32087e+01  2.78911e+01 -2.03423e+01
3
# CELL(abcABC): 1322.94304  1322.94304  1322.94304    90.00000    90.00000    90.00000  Step:        7400  Bead:       7 positions{angstrom}  cell{angstrom}
       E -9.22697e+00 -6.12163e+01 -7.09415e+00
       E  1.31926e+01  3.00832e+01  5.81032e+01
       E  1.15158e+02  7.54801e+01 -2.87995e+01
3
# CELL(abcABC): 1322.94304  1322.94304  1322.94304    90.00000    90.00000    90.00000  Step:        7500  Bead:       7 positions{angstrom}  cell{angstrom}
       E -2.62551e+01 -4.81872e+01 -3.13958e+01
       E -1.13824e+01  2.18244e+01  1.77438e+01
       E  6.72200e+01  6.28220e+01 -4.76202e+01
3
# CELL(abcABC): 1322.94304  1322.94304  1322.94304    90.00000    90.00000    90.00000  Step:        7600  Bead:       7 positions{angstrom}  cell{angstrom}
       E -1.26176e+01 -8.94177e+01 -7.74025e+00
       E -1.82778e+01 -5.59131e+01 -2.26762e+01
       E  7.00352e+01  2.69236e+01 -4.49856e+00
3
# CELL(abcABC): 1322.94304  1322.94304  1322.94304    90.00000    90.00000    90.00000  Step:        7700  Bead:       7 positions{angstrom}  cell{angstrom}
       E  5.55171e-01 -1.99919e+01 -2.68008e+01
       E -3.95578e+01 -4.98507e+01 -4.49560e+01
       E  3.57276e+01  2.84879e+01 -2.35039e+01
3
# CELL(abcABC): 1322.94304  1322.94304  1322.94304    90.00000    90.00000    90.00000  Step:        7800  Bead:       7 positions{angstrom}  cell{angstrom}
       E  3.58406e+01 -3.00123e+01 -5.73085e+01
       E  2.25378e+01 -3.87949e+01 -3.91439e+01
       E  4.69577e+01  6.46532e+00 -7.91586e+01
3
# CELL(abcABC): 1322.94304  1322.94304  1322.94304    90.00000    90.00000    90.00000  Step:        7900  Bead:       7 positions{angstrom}  cell{angstrom}
       E  1.31712e+01 -4.15955e+01 -5.29381e+01
       E  3.46036e+01 -5.83637e+01 -1.93892e+01
       E  4.30706e+01  3.07851e+01 -5.38280e+01
3
# CELL(abcABC): 1322.94304  1322.94304  1322.94304    90.00000    90.00000    90.00000  Step:        8000  Bead:       7 positions{angstrom}  cell{angstrom}
       E  5.37304e+00  1.78682e+01 -8.88878e+00
       E  4.55351e+01 -2.73389e+01 -4.23238e+01
       E -8.79176e+00  5.86242e+01 -1.46767e+01
3
# CELL(abcABC): 1322.94304  1322.94304  1322.94304    90.00000    90.00000    90.00000  Step:        8100  Bead:       7 positions{angstrom}  cell{angstrom}
       E  2.20476e+01  1.38616e-01 -1.19707e+01
       E  9.87455e-01 -1.70667e+01 -1.04070e+01
       E  3.73030e+00  6.30050e+00  5.83221e+00
3
# CELL(abcABC): 1322.94304  1322.94304  1322.94304    90.00000    90.00000    90.00000  Step:        8200  Bead:       7 positions{angstrom}  cell{angstrom}
       E  2.05107e+01  3.53798e+01 -4.52052e+01
       E  6.71100e+00 -9.88374e+00  2.96121e+01
       E  3.53511e+01 -5.70656e+00  1.98168e+01
3
# CELL(abcABC): 1322.94304  1322.94304  1322.94304    90.00000    90.00000    90.00000  Step:        8300  Bead:       7 positions{angstrom}  cell{angstrom}
       E  3.94603e+01  5.48846e+00 -5.97711e+01
       E  1.39629e+01  9.18563e+00  4.01489e+01
       E  2.18196e+01 -3.01890e+01  8.92990e+00
3
# CELL(abcABC): 1322.94304  1322.94304  1322.94304    90.00000    90.00000    90.00000  Step:        8400  Bead:       7 positions{angstrom}  cell{angstrom}
       E  2.07619e+01  3.85581e+01 -4.33733e+01
       E  2.36222e+00  4.78512e+00  1.12363e+01
       E  5.80738e+01  9.61406e+00  2.85112e+01
3
# CELL(abcABC): 1322.94304  1322.94304  1322.94304    90.00000    90.00000    90.00000  Step:        8500  Bead:       7 positions{angstrom}  cell{angstrom}
       E -4.49513e+01  1.71353e+01 -4.06536e+00
       E  5.53816e+01 -3.04529e+00  1.06419e+01
       E  5.83056e+01  1.10304e+01  3.72731e+01
3
# CELL(abcABC): 1322.94304  1322.94304  1322.94304    90.00000    90.00000    90.00000  Step:        8600  Bead:       7 positions{angstrom}  cell{angstrom}
       E -5.99921e+01  5.58633e+01 -2.41105e+01
       E  2.55876e+01  1.27572e+01 -3.60874e+01
       E  2.11967e+01 -3.18661e+01  2.59389e+01
3
# CELL(abcABC): 1322.94304  1322.94304  1322.94304    90.00000    90.00000    90.00000  Step:        8700  Bead:       7 positions{angstrom}  cell{angstrom}
       E  4.54624e+00  2.77148e+01 -1.60269e+01
       E  4.82894e+01  2.62733e+01 -1.08411e+01
       E  4.17908e+01 -3.51007e+01 -9.10606e+00
3
# CELL(abcABC): 1322.94304  1322.94304  1322.94304    90.00000    90.00000    90.00000  Step:        8800  Bead:       7 positions{angstrom}  cell{angstrom}
       E -4.08326e+00  2.86747e+01  2.17848e+01
       E  2.13649e+01 -2.21140e+00  2.00812e+01
       E  4.30809e+01 -4.49532e+01  6.66082e+01
3
# CELL(abcABC): 1322.94304  1322.94304  1322.94304    90.00000    90.00000    90.00000  Step:        8900  Bead:       7 positions{angstrom}  cell{angstrom}
       E  1.29367e+01  1.82107e+01  1.32673e+01
       E -9.51581e+00 -6.53913e+01  3.04224e+01
       E  3.70269e+01 -6.06358e+01  3.68727e+01
3
# CELL(abcABC): 1322.94304  1322.94304  1322.94304    90.00000    90.00000    90.00000  Step:        9000  Bead:       7 positions{angstrom}  cell{angstrom}
       E -1.24995e+01  2.07688e+01  2.35278e+01
       E -2.56036e+01 -8.67222e+00  5.50096e+01
       E  3.21041e+01 -5.81385e+01 -6.08077e-01
3
# CELL(abcABC): 1322.94304  1322.94304  1322.94304    90.00000    90.00000    90.00000  Step:        9100  Bead:       7 positions{angstrom}  cell{angstrom}
       E -9.95423e+00  3.57716e+01  1.19417e+01
       E -4.15854e+01 -2.65357e+01  5.52997e+01
       E  1.71226e+01 -6.74932e+01  3.45300e+00
3
# CELL(abcABC): 1322.94304  1322.94304  1322.94304    90.00000    90.00000    90.00000  Step:        9200  Bead:       7 positions{angstrom}  cell{angstrom}
       E  2.94648e+01  3.53306e+01  1.28617e+01
       E  6.10626e+00  1.82963e-01  1.02071e+01
       E  1.46452e+01 -4.85858e+01  2.48592e+01
3
# CELL(abcABC): 1322.94304  1322.94304  1322.94304    90.00000    90.00000    90.00000  Step:        9300  Bead:       7 positions{angstrom}  cell{angstrom}
       E  1.13889e+01  4.56915e+01 -3.97020e+01
       E  4.36086e+00 -4.22477e+01  1.97288e+01
       E  2.14685e+01 -3.30313e+01 -1.21649e+01
3
# CELL(abcABC): 1322.94304  1322.94304  1322.94304    90.00000    90.00000    90.00000  Step:        9400  Bead:       7 positions{angstrom}  cell{angstrom}
       E  2.79657e+01  4.81114e+01 -6.55375e+01
       E -2.75225e+00 -4.55721e+01  2.66935e+01
       E  4.09389e+01 -5.07334e+01  1.00800e+01
3
# CELL(abcABC): 1322.94304  1322.94304  1322.94304    90.00000    90.00000    90.00000  Step:        9500  Bead:       7 positions{angstrom}  cell{angstrom}
       E  1.13222e+01  2.99266e+01 -2.73323e+01
       E  8.56850e+00 -4.84276e+01  2.63502e+00
       E  1.77675e+01 -3.01713e+01 -1.05401e+01
3
# CELL(abcABC): 1322.94304  1322.94304  1322.94304    90.00000    90.00000    90.00000  Step:        9600  Bead:       7 positions{angstrom}  cell{angstrom}
       E -2.58852e+01  1.15172e+01 -3.15653e+01
       E  5.93628e+01 -3.74133e+01  3.88112e+01
       E -5.16019e+00 -2.51248e+00  1.66134e+01
3
# CELL(abcABC): 1322.94304  1322.94304  1322.94304    90.00000    90.00000    90.00000  Step:        9700  Bead:       7 positions{angstrom}  cell{angstrom}
       E -5.99363e+00 -1.49722e+01 -8.67711e+01
       E  4.85021e+01 -6.17214e+01  1.74607e+01
       E  1.89668e+01 -4.86654e+01  2.28403e+01
3
# CELL(abcABC): 1322.94304  1322.94304  1322.94304    90.00000    90.00000    90.00000  Step:        9800  Bead:       7 positions{angstrom}  cell{angstrom}
       E -1.72224e+01 -5.76862e+01 -7.56266e+01
       E  3.63265e+01 -8.40509e+01 -8.05907e+00
       E -6.23390e+00 -3.04001e+01  2.00209e+01
3