3
# CELL(abcABC): 1322.94304  1322.94304  1322.94304    90.00000    90.00000    90.00000  Step:           0  Bead:      17 positions{angstrom}  cell{angstrom}
       E  0.00000e+00  0.00000e+00  0.00000e+00
       E  0.00000e+00  0.00000e+00  0.00000e+00
       E  0.00000e+00  0.00000e+00  0.00000e+00
3
# CELL(abcABC): 1322.94304  1322.94304  1322.94304    90.00000    90.00000    90.00000  Step:         100  Bead:      17 positions{angstrom}  cell{angstrom}
       E  1.44198e+01 -1.95217e+01 -1.93850e+01
       E -1.31731e+00 -2.78938e+01 -4.39892e+00
       E -1.78380e+01  1.48700e+01 -2.80700e+01
3
# CELL(abcABC): 1322.94304  1322.94304  1322.94304    90.00000    90.00000    90.00000  Step:         200  Bead:      17 positions{angstrom}  cell{angstrom}
       E  2.96112e+00  8.01872e-01  1.00892e+01
       E  1.13721e+01 -3.94709e+01 -1.24165e+01
       E  4.10698e+00  2.50268e+01 -2.58594e+01
3
# CELL(abcABC): 1322.94304  1322.94304  1322.94304    90.00000    90.00000    90.00000  Step:         300  Bead:      17 positions{angstrom}  cell{angstrom}
       E -1.55845e+01 -2.07060e+01  1.70071e+01
       E  8.65729e+00 -6.51999e+00 -2.14821e+01
       E -2.51871e+01  4.43895e+01 -8.20081e+00
3
# CELL(abcABC): 1322.94304  1322.94304  1322.94304    90.00000    90.00000    90.00000  Step:         400  Bead:      17 positions{angstrom}  cell{angstrom}
       E -1.60017e+01  3.55104e+01  1.66005e+01
       E  5.12539e+01 -1.80960e+00  8.30659e-01
       E -2.23485e+01  3.30632e+01  5.06216e+00
3
# CELL(abcABC): 1322.94304  1322.94304  1322.94304    90.00000    90.00000    90.00000  Step:         500  Bead:      17 positions{angstrom}  cell{angstrom}
       E -3.51757e+01  1.00327e+01 -3.30519e+00
       E  4.97388e+01 -1.58534e+00 -1.32447e+01
       E -1.07188e+01 -5.69075e+00  3.22082e+01
3
# CELL(abcABC): 1322.94304  1322.94304  1322.94304    90.00000    90.00000    90.00000  Step:         600  Bead:      17 positions{angstrom}  cell{angstrom}
       E -8.98958e+00 -2.77285e+01 -2.11477e+01
       E  2.73989e+01  9.26203e+00 -4.17633e+00
       E -2.13084e+01 -1.12532e+01  3.71182e+01
3
# CELL(abcABC): 1322.94304  1322.94304  1322.94304    90.00000    90.00000    90.00000  Step:         700  Bead:      17 positions{angstrom}  cell{angstrom}
       E -5.59705e+00  4.80958e+00 -5.46588e+00
       E  5.49651e+01  3.33861e+01 -2.34623e+00
       E -7.81429e+00 -2.66565e+01  2.51349e+01
3
# CELL(abcABC): 1322.94304  1322.94304  1322.94304    90.00000    90.00000    90.00000  Step:         800  Bead:      17 positions{angstrom}  cell{angstrom}
       E -6.66342e+00  9.94819e+00 -1.17721e+01
       E  3.17826e+01  1.67608e+01  1.91513e+01
       E -5.07713e+01 -2.66232e+01  9.78798e+01
3
# CELL(abcABC): 1322.94304  1322.94304  1322.94304    90.00000    90.00000    90.00000  Step:         900  Bead:      17 positions{angstrom}  cell{angstrom}
       E -1.54479e+01  3.35603e+01 -4.98283e+01
       E  3.24918e+01  1.90894e+01 -1.70353e+01
       E -5.51863e+01 -1.50326e+01  8.10216e+01
3
# CELL(abcABC): 1322.94304  1322.94304  1322.94304    90.00000    90.00000    90.00000  Step:        1000  Bead:      17 positions{angstrom}  cell{angstrom}
       E  4.92016e-01  5.88717e+00 -6.36659e+01
       E  1.41147e+01  1.28888e+00 -3.00476e+01
       E -5.75997e+01 -8.21359e+00  8.15347e+01
3
# CELL(abcABC): 1322.94304  1322.94304  1322.94304    90.00000    90.00000    90.00000  Step:        1100  Bead:      17 positions{angstrom}  cell{angstrom}
       E  3.74667e+01 -1.07720e+01 -6.97249e+01
       E  2.40061e+01 -1.16510e+00 -3.99135e+01
       E -3.33802e+01  3.57163e+01  4.60675e+01
3
# CELL(abcABC): 1322.94304  1322.94304  1322.94304    90.00000    90.00000    90.00000  Step:        1200  Bead:      17 positions{angstrom}  cell{angstrom}
       E -1.52714e+01  1.19898e+01 -9.73403e+01
       E  3.64812e+01 -5.70232e+01 -2.28793e+01
       E -7.38918e+00  6.17403e+01  2.05739e+01
3
# CELL(abcABC): 1322.94304  1322.94304  1322.94304    90.00000    90.00000    90.00000  Step:        1300  Bead:      17 positions{angstrom}  cell{angstrom}
       E -1.89028e+01  1.68339e+01 -8.29882e+01
       E  6.40744e+01 -2.97215e+01 -3.81555e+01
       E -1.04222e+01  2.93887e+01 -1.30734e+01
3
# CELL(abcABC): 1322.94304  1322.94304  1322.94304    90.00000    90.00000    90.00000  Step:        1400  Bead:      17 positions{angstrom}  cell{angstrom}
       E -1.25502e+01  4.03615e+01 -7.86160e+01
       E  2.12896e+01 -1.30566e+01 -3.81360e+01
       E  6.53270e+00  1.25009e+01  2.06632e+01
3
# CELL(abcABC): 1322.94304  1322.94304  1322.94304    90.00000    90.00000    90.00000  Step:        1500  Bead:      17 positions{angstrom}  cell{angstrom}
       E  9.22095e+00  3.91722e+01 -4.90470e+01
       E -2.11507e+01  1.27127e+01 -1.66606e+01
       E -1.55996e+01  3.19241e+01  1.96881e+01
3
# CELL(abcABC): 1322.94304  1322.94304  1322.94304    90.00000    90.00000    90.00000  Step:        1600  Bead:      17 positions{angstrom}  cell{angstrom}
       E -1.54286e+01  3.94282e+01 -4.98600e+01
       E -1.19813e+01  3.46721e+01 -1.57179e+01
       E -1.96446e+01  2.70296e+01  1.93246e+01
3
# CELL(abcABC): 1322.94304  1322.94304  1322.94304    90.00000    90.00000    90.00000  Step:        1700  Bead:      17 positions{angstrom}  cell{angstrom}
       E  2.36922e+01  1.89583e+01  3.21509e+01
       E -3.06942e+01  3.64457e+01  3.07668e+01
       E -4.03692e+01  5.81324e+01  2.65874e+01
3
# CELL(abcABC): 1322.94304  1322.94304  1322.94304    90.00000    90.00000    90.00000  Step:        1800  Bead:      17 positions{angstrom}  cell{angstrom}
       E  1.66300e+01  4.31817e+01  3.79769e+01
       E -7.03380e+01  3.47526e+01  1.41354e+01
       E -9.44612e+01  9.06143e+01  3.92003e+01
3
# CELL(abcABC): 1322.94304  1322.94304  1322.94304    90.00000    90.00000    90.00000  Step:        1900  Bead:      17 positions{angstrom}  cell{angstrom}
       E  8.68020e+00  1.43217e+01  5.17720e+01
       E -5.42754e+01  3.57136e+01 -1.08470e+01
       E -8.38798e+01  7.38710e+01  2.20530e+01
3
# CELL(abcABC): 1322.94304  1322.94304  1322.94304    90.00000    90.00000    90.00000  Step:        2000  Bead:      17 positions{angstrom}  cell{angstrom}
       E -1.65586e+00 -1.06864e+01  6.77470e+01
       E -6.79535e+01  3.44763e+01  1.24236e+01
       E -9.20832e+01  8.53125e+01  3.81826e+01
3
# CELL(abcABC): 1322.94304  1322.94304  1322.94304    90.00000    90.00000    90.00000  Step:        2100  Bead:      17 positions{angstrom}  cell{angstrom}
       E -3.59530e+01 -1.41242e+01  5.31979e+01
       E -4.07271e+01  1.58151e+01  1.66136e+01
       E -8.63756e+01  1.07902e+02  2.10871e+01
3
# CELL(abcABC): 1322.94304  1322.94304  1322.94304    90.00000    90.00000    90.00000  Step:        2200  Bead:      17 positions{angstrom}  cell{angstrom}
       E -3.37305e+01 -4.08172e+01  5.35201e+01
       E -1.95044e+01 -4.09007e+01 -1.52890e+01
       E -5.90759e+01  6.93344e+01  8.72928e+00
3
# CELL(abcABC): 1322.94304  1322.94304  1322.94304    90.00000    90.00000    90.00000  Step:        2300  Bead:      17 positions{angstrom}  cell{angstrom}
       E -4.47765e+01 -5.27322e+01  5.32379e+01
       E  4.56804e+00 -2.99466e+01 -5.62312e+00
       E -2.39643e+01  5.60570e+01  3.29740e+01
3
# CELL(abcABC): 1322.94304  1322.94304  1322.94304    90.00000    90.00000    90.00000  Step:        2400  Bead:      17 positions{angstrom}  cell{angstrom}
       E -5.07081e+01 -6.69181e+01  1.44745e+01
       E -2.39365e+00 -2.08865e+01 -6.92925e-01
       E -3.11071e+01  2.86043e+01  3.34251e+01
3
# CELL(abcABC): 1322.94304  1322.94304  1322.94304    90.00000    90.00000    90.00000  Step:        2500  Bead:      17 positions{angstrom}  cell{angstrom}
       E -2.73878e+01 -1.20619e+01  1.28136e+01
       E  1.28602e+01 -6.68573e+01 -6.40106e+01
       E  2.80150e+01  3.07945e+01  3.86409e+01
3
# CELL(abcABC): 1322.94304  1322.94304  1322.94304    90.00000    90.00000    90.00000  Step:        2600  Bead:      17 positions{angstrom}  cell{angstrom}
       E -2.92702e+01 -7.16856e+00  1.08643e+01
       E -4.05571e+01 -5.09866e+01 -6.59692e+01
       E  9.32426e-01 -1.61733e+01  3.02928e+01
3
# CELL(abcABC): 1322.94304  1322.94304  1322.94304    90.00000    90.00000    90.00000  Step:        2700  Bead:      17 positions{angstrom}  cell{angstrom}
       E -2.92908e+01  2.42173e+00  3.19467e+01
       E -5.72600e+01 -3.25523e+01 -1.54331e+01
       E  4.76346e+01  1.25154e+00  3.79947e+01
3
# CELL(abcABC): 1322.94304  1322.94304  1322.94304    90.00000    90.00000    90.00000  Step:        2800  Bead:      17 positions{angstrom}  cell{angstrom}
       E -2.68455e+01  5.81235e-01  3.46296e+01
       E -7.54312e+01 -6.09837e+01 -4.55418e+01
       E  3.25239e+01 -1.97545e+01  2.14457e+01
3
# CELL(abcABC): 1322.94304  1322.94304  1322.94304    90.00000    90.00000    90.00000  Step:        2900  Bead:      17 positions{angstrom}  cell{angstrom}
       E -6.73224e+01 -3.32680e-01  6.03289e+01
       E -7.68730e+01 -5.78166e+01 -3.98714e+01
       E  1.51961e+00  9.06771e+00  5.51642e+00
3
# CELL(abcABC): 1322.94304  1322.94304  1322.94304    90.00000    90.00000    90.00000  Step:        3000  Bead:      17 positions{angstrom}  cell{angstrom}
       E -4.88323e+01  2.03075e+00  5.72961e+01
       E -6.71100e+01 -6.12191e+01  1.04181e+01
       E  2.54755e+01  3.88241e+01  2.19619e+01
3
# CELL(abcABC): 1322.94304  1322.94304  1322.94304    90.00000    90.00000    90.00000  Step:        3100  Bead:      17 positions{angstrom}  cell{angstrom}
       E -5.85247e+01 -1.55590e+01  3.67591e+01
       E -9.29189e+01 -6.64813e+01 -2.06518e+00
       E  4.57257e+01  5.33585e+01  3.49507e+01
3
# CELL(abcABC): 1322.94304  1322.94304  1322.94304    90.00000    90.00000    90.00000  Step:        3200  Bead:      17 positions{angstrom}  cell{angstrom}
       E -4.71652e+01  1.80846e+01 -1.50911e+01
       E -1.01324e+02 -3.50816e+01  5.52608e+01
       E  7.75087e+01  8.61222e+01  4.91146e+01
3
# CELL(abcABC): 1322.94304  1322.94304  1322.94304    90.00000    90.00000    90.00000  Step:        3300  Bead:      17 positions{angstrom}  cell{angstrom}
       E -3.19885e+01  4.15123e+00  1.65705e+01
       E -7.89282e+01 -6.34605e+01  4.80467e+01
       E  4.27550e+01  9.82688e+01  5.71184e+01
3
# CELL(abcABC): 1322.94304  1322.94304  1322.94304    90.00000    90.00000    90.00000  Step:        3400  Bead:      17 positions{angstrom}  cell{angstrom}
       E -7.22187e+01 -7.64730e+00  4.02136e+01
       E -8.88610e+01 -2.32557e+01  5.74831e+01
       E  3.82006e+01  9.21444e+01  3.14786e+01
3
# CELL(abcABC): 1322.94304  1322.94304  1322.94304    90.00000    90.00000    90.00000  Step:        3500  Bead:      17 positions{angstrom}  cell{angstrom}
       E -1.04684e+02 -4.84528e+00  4.25028e+01
       E -4.60180e+01 -4.67438e+01  3.06407e+01
       E  1.74627e+01  4.80308e+01  4.37585e+01
3
# CELL(abcABC): 1322.94304  1322.94304  1322.94304    90.00000    90.00000    90.00000  Step:        3600  Bead:      17 positions{angstrom}  cell{angstrom}
       E -9.10388e+01 -5.93848e+00  2.03165e+01
       E -3.77444e+00 -2.86577e+01  3.51607e+00
       E  1.24800e+01  2.83080e+01  2.77065e+01
3
# CELL(abcABC): 1322.94304  1322.94304  1322.94304    90.00000    90.00000    90.00000  Step:        3700  Bead:      17 positions{angstrom}  cell{angstrom}
       E -7.97254e+01 -1.04352e+01 -3.31282e+01
       E -1.94283e+01 -1.60720e+01  1.90694e+01
       E -3.68058e+01  6.02297e+01 -3.52165e+00
3
# CELL(abcABC): 1322.94304  1322.94304  1322.94304    90.00000    90.00000    90.00000  Step:        3800  Bead:      17 positions{angstrom}  cell{angstrom}
       E -1.02242e+02 -1.30134e+01 -4.69437e+01
       E -9.01261e+00 -6.99563e+01 -1.25324e+01
       E -7.24281e+01  1.68168e+01 -2.42455e+01
3
# CELL(abcABC): 1322.94304  1322.94304  1322.94304    90.00000    90.00000    90.00000  Step:        3900  Bead:      17 positions{angstrom}  cell{angstrom}
       E -1.21190e+02 -3.93761e+00 -4.36616e+01
       E -4.59443e+01 -5.32765e+01 -1.95326e+01
       E -2.33360e+01  2.93820e+01 -2.31470e+01
3
# CELL(abcABC): 1322.94304  1322.94304  1322.94304    90.00000    90.00000    90.00000  Step:        4000  Bead:      17 positions{angstrom}  cell{angstrom}
       E -1.11536e+02  3.39113e+01 -3.90165e+01
       E -3.41213e+01 -4.74888e+00  3.08336e+01
       E -4.05931e+00  2.37908e+01  1.42859e+01
3
# CELL(abcABC): 1322.94304  1322.94304  1322.94304    90.00000    90.00000    90.00000  Step:        4100  Bead:      17 positions{angstrom}  cell{angstrom}
       E -6.55441e+01  5.65588e+01 -7.30260e+01
       E -7.17898e+01  3.47023e+01  5.92776e+00
       E -1.01250e+01 -3.35640e+01  2.85432e+01
3
# CELL(abcABC): 1322.94304  1322.94304  1322.94304    90.00000    90.00000    90.00000  Step:        4200  Bead:      17 positions{angstrom}  cell{angstrom}
       E -7.84555e+01  5.31223e+00 -8.83432e+01
       E -6.98934e+01  3.29706e+01  3.41259e+01
       E  1.38629e+01 -2.56563e+01  7.12098e+01
3
# CELL(abcABC): 1322.94304  1322.94304  1322.94304    90.00000    90.00000    90.00000  Step:        4300  Bead:      17 positions{angstrom}  cell{angstrom}
       E -7.03625e+01  4.89414e+01 -6.06110e+01
       E -3.53496e+01  4.89583e+01  4.15463e+01
       E  1.93098e+01 -4.46747e+01  4.58468e+01
3
# CELL(abcABC): 1322.94304  1322.94304  1322.94304    90.00000    90.00000    90.00000  Step:        4400  Bead:      17 positions{angstrom}  cell{angstrom}
       E -5.70105e+01  1.54187e+01 -4.94309e+01
       E -2.49026e+01  7.75235e+01  4.68285e+00
       E  3.31474e+00 -4.10645e+01  5.12035e+00
3
# CELL(abcABC): 1322.94304  1322.94304  1322.94304    90.00000    90.00000    90.00000  Step:        4500  Bead:      17 positions{angstrom}  cell{angstrom}
       E -5.13940e+01  3.43675e+01 -9.75000e+01
       E -5.60024e+01  8.25617e+01 -1.01197e+01
       E -3.42267e+00 -3.47501e+01  2.24953e+01
3
# CELL(abcABC): 1322.94304  1322.94304  1322.94304    90.00000    90.00000    90.00000  Step:        4600  Bead:      17 positions{angstrom}  cell{angstrom}
       E -1.98681e+01  8.89880e+00 -6.98973e+01
       E -5.41215e+01  1.16682e+02 -2.56576e+01
       E  5.77726e+00  3.95778e+00 -7.76130e+00
3
# CELL(abcABC): 1322.94304  1322.94304  1322.94304    90.00000    90.00000    90.00000  Step:        4700  Bead:      17 positions{angstrom}  cell{angstrom}
       E -3.74262e+01  2.86163e+01 -5.36535e+01
       E -4.67675e+01  6.49731e+01 -2.21024e+01
       E  3.66565e+01 -1.21779e+01 -1.22886e+00
3
# CELL(abcABC): 1322.94304  1322.94304  1322.94304    90.00000    90.00000    90.00000  Step:        4800  Bead:      17 positions{angstrom}  cell{angstrom}
       E -3.13368e+01  5.75597e-01 -3.07321e+01
       E -2.56631e+01  1.83152e+01 -1.47972e+01
       E  2.85999e+01 -6.50067e+00  2.42149e+01
3
# CELL(abcABC): 1322.94304  1322.94304  1322.94304    90.00000    90.00000    90.00000  Step:        4900  Bead:      17 positions{angstrom}  cell{angstrom}
       E  4.18803e+00  9.87270e+00  9.72640e+00
       E -2.68802e+01  1.87621e+01 -2.56364e+01
       E  2.69677e+01 -1.31878e+01  4.98277e+00
3
# CELL(abcABC): 1322.94304  1322.94304  1322.94304    90.00000    90.00000    90.00000  Step:        5000  Bead:      17 positions{angstrom}  cell{angstrom}
       E  1.72773e+01 -2.54610e+01  1.77709e+01
       E -3.07384e+01 -5.47510e+00 -5.19102e+01
       E  1.78997e+01  2.82718e+00 -1.80089e+01
3
# CELL(abcABC): 1322.94304  1322.94304  1322.94304    90.00000    90.00000    90.00000  Step:        5100  Bead:      17 positions{angstrom}  cell{angstrom}
       E  2.26102e+01  2.42998e+01  2.22756e+01
       E -3.76566e+01  1.67292e+01 -5.31191e+01
       E -1.06033e+01 -1.66876e+01 -3.09476e+01
3
# CELL(abcABC): 1322.94304  1322.94304  1322.94304    90.00000    90.00000    90.00000  Step:        5200  Bead:      17 positions{angstrom}  cell{angstrom}
       E  2.68623e+00  1.87906e+01  2.49724e+01
       E -4.64475e+01  1.82183e+01 -2.95763e+01
       E -2.31405e+01  4.05812e+01 -6.37656e+00
3
# CELL(abcABC): 1322.94304  1322.94304  1322.94304    90.00000    90.00000    90.00000  Step:        5300  Bead:      17 positions{angstrom}  cell{angstrom}
       E -3.35989e+00  6.60084e+00  3.33784e+01
       E -2.91058e+01  4.92506e+01 -3.98003e+00
       E -3.31954e+01  5.74758e+01  1.87505e+01
3
# CELL(abcABC): 1322.94304  1322.94304  1322.94304    90.00000    90.00000    90.00000  Step:        5400  Bead:      17 positions{angstrom}  cell{angstrom}
       E -1.60642e+00 -4.63318e+01  3.03732e+01
       E -3.46753e+00 -7.10570e+00 -1.23517e+01
       E -3.78292e+01  1.24806e+01  3.16228e+01
3
# CELL(abcABC): 1322.94304  1322.94304  1322.94304    90.00000    90.00000    90.00000  Step:        5500  Bead:      17 positions{angstrom}  cell{angstrom}
       E  1.13924e+01 -5.90276e+00  5.42200e+00
       E -2.78252e+01 -1.04529e+01 -4.09158e+00
       E -3.52194e+01 -6.50688e+00  6.07331e+01
3
# CELL(abcABC): 1322.94304  1322.94304  1322.94304    90.00000    90.00000    90.00000  Step:        5600  Bead:      17 positions{angstrom}  cell{angstrom}
       E  9.42384e+00 -1.12631e+01 -1.38150e+01
       E -6.85679e+01 -4.52782e+01  9.52150e+00
       E -4.52792e+01 -7.26856e+00  2.23062e+01
3
# CELL(abcABC): 1322.94304  1322.94304  1322.94304    90.00000    90.00000    90.00000  Step:        5700  Bead:      17 positions{angstrom}  cell{angstrom}
       E  2.07045e+01 -5.63547e+01 -3.14533e+01
       E -7.48421e+01  6.42813e+00  9.52863e+00
       E -3.67803e+01 -2.87356e+00  1.08331e+01
3
# CELL(abcABC): 1322.94304  1322.94304  1322.94304    90.00000    90.00000    90.00000  Step:        5800  Bead:      17 positions{angstrom}  cell{angstrom}
       E  7.82680e+00 -1.44529e+01 -1.98112e+01
       E -2.69120e+01  5.29107e+01 -3.25296e+01
       E -5.97370e+01  1.31470e+01 -4.03915e+00
3
# CELL(abcABC): 1322.94304  1322.94304  1322.94304    90.00000    90.00000    90.00000  Step:        5900  Bead:      17 positions{angstrom}  cell{angstrom}
       E  5.08000e+01  1.23089e+01 -2.88807e+01
       E -9.48418e+00  8.20364e-01  1.53947e+01
       E -1.50467e+01 -7.82155e+00 -2.46291e+01
3
# CELL(abcABC): 1322.94304  1322.94304  1322.94304    90.00000    90.00000    90.00000  Step:        6000  Bead:      17 positions{angstrom}  cell{angstrom}
       E  1.62637e+01 -2.78974e+01  2.34798e+01
       E  1.12507e+01  5.85670e+00  1.09701e+01
       E -4.34669e+00 -3.93726e+00  9.16826e+00
3
# CELL(abcABC): 1322.94304  1322.94304  1322.94304    90.00000    90.00000    90.00000  Step:        6100  Bead:      17 positions{angstrom}  cell{angstrom}
       E  8.27964e+00 -3.10156e+01 -4.18373e+01
       E  4.43818e+01  9.70635e+00  2.41741e+01
       E  1.48285e+01  6.08683e+00 -2.76258e+01
3
# CELL(abcABC): 1322.94304  1322.94304  1322.94304    90.00000    90.00000    90.00000  Step:        6200  Bead:      17 positions{angstrom}  cell{angstrom}
       E -4.71627e-02 -1.77085e+01 -7.75154e+01
       E  8.06350e+01  2.97817e+01 -1.17198e+01
       E  1.01707e+01 -9.16646e+00  2.40368e+01
3
# CELL(abcABC): 1322.94304  1322.94304  1322.94304    90.00000    90.00000    90.00000  Step:        6300  Bead:      17 positions{angstrom}  cell{angstrom}
       E  4.74048e+00 -4.54787e+01 -8.55138e+01
       E  9.42662e+01  1.31438e+01 -2.71857e+01
       E -2.89528e+00 -2.24541e+01  2.03170e+00
3
# CELL(abcABC): 1322.94304  1322.94304  1322.94304    90.00000    90.00000    90.00000  Step:        6400  Bead:      17 positions{angstrom}  cell{angstrom}
       E  4.34330e+00 -4.32853e+01 -9.52552e+01
       E  4.36342e+01  1.15868e+01 -3.76568e+01
       E  3.46362e+01 -3.14668e+00 -1.36580e+00
3
# CELL(abcABC): 1322.94304  1322.94304  1322.94304    90.00000    90.00000    90.00000  Step:        6500  Bead:      17 positions{angstrom}  cell{angstrom}
       E  1.15684e+01 -7.38481e+01 -9.35061e+01
       E -2.28215e+00  5.72535e+00 -2.01204e+01
       E  5.23641e+01 -2.72211e+01 -3.25413e+01
3
# CELL(abcABC): 1322.94304  1322.94304  1322.94304    90.00000    90.00000    90.00000  Step:        6600  Bead:      17 positions{angstrom}  cell{angstrom}
       E  1.70773e+01 -7.52069e+01 -6.93326e+01
       E  8.96346e+00 -2.60973e+01 -5.13587e+00
       E  4.31610e+01 -1.97277e+01  1.23288e+00
3
# CELL(abcABC): 1322.94304  1322.94304  1322.94304    90.00000    90.00000    90.00000  Step:        6700  Bead:      17 positions{angstrom}  cell{angstrom}
       E  4.84102e+00 -1.03991e+02 -7.24173e+01
       E  1.70235e+01  4.01761e+01 -9.54475e+00
       E  1.21842e+00 -1.40805e+01  3.93170e+01
3
# CELL(abcABC): 1322.94304  1322.94304  1322.94304    90.00000    90.00000    90.00000  Step:        6800  Bead:      17 positions{angstrom}  cell{angstrom}
       E -1.57121e+01 -1.07391e+02 -6.03166e+01
       E  8.44190e+00 -6.51014e+00 -2.49014e+01
       E  1.26268e+01 -8.60564e+00  9.18528e+00
3
# CELL(abcABC): 1322.94304  1322.94304  1322.94304    90.00000    90.00000    90.00000  Step:        6900  Bead:      17 positions{angstrom}  cell{angstrom}
       E  2.69415e-01 -8.73632e+01 -4.22829e+01
       E  1.23233e+01 -4.06117e+01 -3.09326e+01
       E -7.43172e+00 -9.27393e+00  1.44204e+01
3
# CELL(abcABC): 1322.94304  1322.94304  1322.94304    90.00000    90.00000    90.00000  Step:        7000  Bead:      17 positions{angstrom}  cell{angstrom}
       E  4.55649e+01 -7.82425e+01 -1.16473e+00
       E  7.68165e+00 -1.68498e+01  1.01233e+01
       E -1.00441e+01  2.13288e+01 -1.87472e+01
3
# CELL(abcABC): 1322.94304  1322.94304  1322.94304    90.00000    90.00000    90.00000  Step:        7100  Bead:      17 positions{angstrom}  cell{angstrom}
       E  5.10394e+01 -2.59002e+01  2.00882e+01
       E -5.01928e+00  1.23826e+00  9.27946e+00
       E  6.05891e+01  2.48845e+01 -4.31728e+01
3
# CELL(abcABC): 1322.94304  1322.94304  1322.94304    90.00000    90.00000    90.00000  Step:        7200  Bead:      17 positions{angstrom}  cell{angstrom}
       E  4.16376e+01 -4.25022e+01 -3.11858e+01
       E -3.98092e+01  3.27436e+01  4.08178e+01
       E  3.67286e+01  4.06149e+01 -1.93928e+01
3
# CELL(abcABC): 1322.94304  1322.94304  1322.94304    90.00000    90.00000    90.00000  Step:        7300  Bead:      17 positions{angstrom}  cell{angstrom}
       E  2.82212e+01 -5.06557e+01 -6.86559e+01
       E -3.33163e+01  3.12842e+01  3.37490e+01
       E  5.05904e+01  6.17411e+01 -1.75397e+01
3
# CELL(abcABC): 1322.94304  1322.94304  1322.94304    90.00000    90.00000    90.00000  Step:        7400  Bead:      17 positions{angstrom}  cell{angstrom}
       E  2.70787e+01 -3.45645e+01 -3.92919e+01
       E -2.58789e+01  2.11932e+01  1.64520e+01
       E  4.66442e+01  2.14813e+01  8.40204e+00
3
# CELL(abcABC): 1322.94304  1322.94304  1322.94304    90.00000    90.00000    90.00000  Step:        7500  Bead:      17 positions{angstrom}  cell{angstrom}
       E  6.21096e+00 -7.58846e+01 -4.87866e+01
       E -5.32444e+01 -1.56642e+01  2.29429e+01
       E  6.28070e+01  4.25523e+01 -8.29099e-01
3
# CELL(abcABC): 1322.94304  1322.94304  1322.94304    90.00000    90.00000    90.00000  Step:        7600  Bead:      17 positions{angstrom}  cell{angstrom}
       E  1.59443e+01 -6.33158e+01 -3.15263e+01
       E -1.11019e+01 -2.17313e+01 -1.89898e+01
       E  3.34396e+01  2.50521e+01 -2.29570e+01
3
# CELL(abcABC): 1322.94304  1322.94304  1322.94304    90.00000    90.00000    90.00000  Step:        7700  Bead:      17 positions{angstrom}  cell{angstrom}
       E  1.60234e+01 -5.08814e+01 -1.99332e+01
       E -1.09120e+01 -4.57512e+01 -4.19631e+01
       E  7.81838e+01  2.11412e+01 -3.30639e+01
3
# CELL(abcABC): 1322.94304  1322.94304  1322.94304    90.00000    90.00000    90.00000  Step:        7800  Bead:      17 positions{angstrom}  cell{angstrom}
       E  2.51215e+01 -7.62154e+01 -2.64083e+01
       E -1.35776e+01 -3.29300e+01 -4.08219e+00
       E  3.55482e+01  1.40014e+01 -1.78654e+01
3
# CELL(abcABC): 1322.94304  1322.94304  1322.94304    90.00000    90.00000    90.00000  Step:        7900  Bead:      17 positions{angstrom}  cell{angstrom}
       E  1.86879e+01 -6.22415e+01 -3.98974e+01
       E -1.38867e+00 -1.97693e+00 -4.43216e+01
       E  5.95514e+00 -6.01980e-01 -4.82047e+01
3
# CELL(abcABC): 1322.94304  1322.94304  1322.94304    90.00000    90.00000    90.00000  Step:        8000  Bead:      17 positions{angstrom}  cell{angstrom}
       E  5.42460e+00 -3.98952e+00 -1.08157e+01
       E -5.87976e+00 -6.58984e+00 -1.44916e+01
       E  1.84380e+01 -1.39996e+01 -4.00821e+01
3
# CELL(abcABC): 1322.94304  1322.94304  1322.94304    90.00000    90.00000    90.00000  Step:        8100  Bead:      17 positions{angstrom}  cell{angstrom}
       E -2.42291e+01  6.23853e+00 -3.55221e+01
       E -4.07753e+01  2.58413e+01 -8.36516e-01
       E  2.94911e+01 -8.22627e+00 -1.06279e+01
3
# CELL(abcABC): 1322.94304  1322.94304  1322.94304    90.00000    90.00000    90.00000  Step:        8200  Bead:      17 positions{angstrom}  cell{angstrom}
       E  2.44381e+00  2.99208e+01 -6.00101e+01
       E -2.12673e+01 -2.40011e+01 -3.17441e+01
       E -2.56349e+01 -5.81298e+01  5.48054e+01
3
# CELL(abcABC): 1322.94304  1322.94304  1322.94304    90.00000    90.00000    90.00000  Step:        8300  Bead:      17 positions{angstrom}  cell{angstrom}
       E  3.21082e+01  3.94601e+01 -3.05749e+01
       E -2.90819e+01 -2.76986e+00 -1.19354e+01
       E  2.38527e+01 -3.44707e+01  7.84581e+01
3
# CELL(abcABC): 1322.94304  1322.94304  1322.94304    90.00000    90.00000    90.00000  Step:        8400  Bead:      17 positions{angstrom}  cell{angstrom}
       E -1.52795e+01  2.58515e+01 -2.29942e+01
       E  2.75758e+01  3.79588e+01  2.55076e+01
       E  7.72205e+00 -4.79832e+01  5.63359e+01
3
# CELL(abcABC): 1322.94304  1322.94304  1322.94304    90.00000    90.00000    90.00000  Step:        8500  Bead:      17 positions{angstrom}  cell{angstrom}
       E -2.55853e+01 -2.01534e+01  7.95094e+00
       E  4.71315e+01 -1.72696e+00 -5.46683e+01
       E  1.13305e+01 -4.35163e+01  3.86306e+01
3
# CELL(abcABC): 1322.94304  1322.94304  1322.94304    90.00000    90.00000    90.00000  Step:        8600  Bead:      17 positions{angstrom}  cell{angstrom}
       E  2.49280e+00 -3.20751e+01 -1.74863e+01
       E  3.59295e+01  1.42986e+01 -2.97828e+01
       E  1.69908e+01 -1.81101e+01  2.88796e+01
3
# CELL(abcABC): 1322.94304  1322.94304  1322.94304    90.00000    90.00000    90.00000  Step:        8700  Bead:      17 positions{angstrom}  cell{angstrom}
       E -7.00338e+00 -1.52160e+01 -5.17130e+00
       E  1.99410e+01  4.85282e+00 -4.77090e+01
       E  2.99206e+01 -3.46411e+01  4.91173e+01
3
# CELL(abcABC): 1322.94304  1322.94304  1322.94304    90.00000    90.00000    90.00000  Step:        8800  Bead:      17 positions{angstrom}  cell{angstrom}
       E -1.09972e+01  2.86484e+01  9.43371e+00
       E  2.29310e+01 -1.83865e+01 -1.98687e+01
       E  5.56943e+01 -4.10602e+01  2.79869e+01
3
# CELL(abcABC): 1322.94304  1322.94304  1322.94304    90.00000    90.00000    90.00000  Step:        8900  Bead:      17 positions{angstrom}  cell{angstrom}
       E -4.46499e+01  4.94970e+01  3.78089e+01
       E -3.87961e+00 -1.52939e+01  2.60900e+01
       E  5.26813e+01 -5.52903e+01  3.17129e+01
3
# CELL(abcABC): 1322.94304  1322.94304  1322.94304    90.00000    90.00000    90.00000  Step:        9000  Bead:      17 positions{angstrom}  cell{angstrom}
       E -4.72404e+01  5.18203e+01  3.60510e+01
       E  4.41086e+00 -3.76986e+00  4.97297e+01
       E  4.66069e+01 -3.27325e+01  2.67164e+01
3
# CELL(abcABC): 1322.94304  1322.94304  1322.94304    90.00000    90.00000    90.00000  Step:        9100  Bead:      17 positions{angstrom}  cell{angstrom}
       E -1.37617e+01  1.43858e+01  2.40766e+01
       E  3.08342e+01 -1.93581e+01  6.96946e+01
       E  3.51953e+01 -9.40692e+00  2.29035e+01
3
# CELL(abcABC): 1322.94304  1322.94304  1322.94304    90.00000    90.00000    90.00000  Step:        9200  Bead:      17 positions{angstrom}  cell{angstrom}
       E  4.15268e+01  3.07192e+01  1.25990e+01
       E -3.02548e+01  6.01129e+00  7.22289e+01
       E  3.65714e+01 -5.86919e+01 -2.12258e+01
3
# CELL(abcABC): 1322.94304  1322.94304  1322.94304    90.00000    90.00000    90.00000  Step:        9300  Bead:      17 positions{angstrom}  cell{angstrom}
       E  8.43255e+00  9.76992e+00  8.26412e+00
       E -4.04508e+01  5.13104e+00 -1.37471e-01
       E -8.50087e+00 -4.09923e+01  3.11399e+00
3
# CELL(abcABC): 1322.94304  1322.94304  1322.94304    90.00000    90.00000    90.00000  Step:        9400  Bead:      17 positions{angstrom}  cell{angstrom}
       E -5.28138e+00  4.31002e+01 -1.44061e+01
       E -3.29301e+01 -3.32060e+01  2.43483e+01
       E -9.90939e+00 -4.41478e+01 -7.17075e+00
3
# CELL(abcABC): 1322.94304  1322.94304  1322.94304    90.00000    90.00000    90.00000  Step:        9500  Bead:      17 positions{angstrom}  cell{angstrom}
       E  3.59978e+01  5.90086e+01 -5.73050e+01
       E -9.69961e+00 -4.84864e+01 -8.98504e+00
       E  1.19784e+01 -2.18503e+01  4.66889e+01
3
# CELL(abcABC): 1322.94304  1322.94304  1322.94304    90.00000    90.00000    90.00000  Step:        9600  Bead:      17 positions{angstrom}  cell{angstrom}
       E  7.92553e+00  6.72704e+00 -5.42378e+01
       E  1.93706e+01 -5.17203e+01  2.97694e+01
       E -8.65981e+00 -3.09978e+01 -2.41594e+00
3
# CELL(abcABC): 1322.94304  1322.94304  1322.94304    90.00000    90.00000    90.00000  Step:        9700  Bead:      17 positions{angstrom}  cell{angstrom}
       E  1.50270e+00 -4.10847e+01 -3.43125e+01
       E  1.84731e+01 -7.84015e+01  2.13050e+01
       E  7.26345e+00  2.93587e+01  7.45691e+00
3
# CELL(abcABC): 1322.94304  1322.94304  1322.94304    90.00000    90.00000    90.00000  Step:        9800  Bead:      17 positions{angstrom}  cell{angstrom}
       E -2.95142e+01 -5.45166e+01 -2.29861e+01
       E  1.75091e+01 -9.42965e+01  1.65317e-01
       E -3.01207e+00 -2.82977e+01  2.81291e+01
3