3
# CELL(abcABC): 1322.94304  1322.94304  1322.94304    90.00000    90.00000    90.00000  Step:           0  Bead:      31 positions{angstrom}  cell{angstrom}
       E  0.00000e+00  0.00000e+00  0.00000e+00
       E  0.00000e+00  0.00000e+00  0.00000e+00
       E  0.00000e+00  0.00000e+00  0.00000e+00
3
# CELL(abcABC): 1322.94304  1322.94304  1322.94304    90.00000    90.00000    90.00000  Step:         100  Bead:      31 positions{angstrom}  cell{angstrom}
       E -1.87219e+01 -4.70628e+01  7.16567e-01
       E -5.91208e+00  2.21462e+00 -2.05255e+01
       E  4.39342e+01  2.80260e-01  5.43802e+00
3
# CELL(abcABC): 1322.94304  1322.94304  1322.94304    90.00000    90.00000    90.00000  Step:         200  Bead:      31 positions{angstrom}  cell{angstrom}
       E -1.50852e+01 -2.09613e+00  3.26417e+01
       E  3.27569e+01  5.55040e+00  3.30546e+00
       E -1.82607e+01  1.17717e+01  3.66966e+00
3
# CELL(abcABC): 1322.94304  1322.94304  1322.94304    90.00000    90.00000    90.00000  Step:         300  Bead:      31 positions{angstrom}  cell{angstrom}
       E  3.27766e+01 -1.58007e+01 -2.38546e+01
       E  2.31579e+01 -2.16920e+01  2.80274e+01
       E -1.94664e+01  5.23781e+01 -5.13673e-01
3
# CELL(abcABC): 1322.94304  1322.94304  1322.94304    90.00000    90.00000    90.00000  Step:         400  Bead:      31 positions{angstrom}  cell{angstrom}
       E  4.14033e+01  1.13813e+01 -3.53699e+01
       E  5.05849e+01 -2.98803e+00  7.38541e+00
       E  2.78102e+00  3.10174e+01 -3.35511e+00
3
# CELL(abcABC): 1322.94304  1322.94304  1322.94304    90.00000    90.00000    90.00000  Step:         500  Bead:      31 positions{angstrom}  cell{angstrom}
       E  8.18867e+00 -1.41252e+00 -2.01169e+01
       E  3.83468e+01  2.28833e+00  7.44047e+00
       E -1.05868e+01  2.31301e+01  2.52136e+01
3
# CELL(abcABC): 1322.94304  1322.94304  1322.94304    90.00000    90.00000    90.00000  Step:         600  Bead:      31 positions{angstrom}  cell{angstrom}
       E  9.06623e+00 -1.69156e+01 -2.51655e+01
       E -1.78533e+01 -1.84602e+00  3.10865e+01
       E -9.55133e+00  3.35116e+01  2.43677e+01
3
# CELL(abcABC): 1322.94304  1322.94304  1322.94304    90.00000    90.00000    90.00000  Step:         700  Bead:      31 positions{angstrom}  cell{angstrom}
       E -1.04931e+00  6.51160e+00 -5.32769e+01
       E -3.56172e+01 -6.37480e+00  2.67819e+01
       E -3.18467e+01  3.47490e+01  5.67222e+01
3
# CELL(abcABC): 1322.94304  1322.94304  1322.94304    90.00000    90.00000    90.00000  Step:         800  Bead:      31 positions{angstrom}  cell{angstrom}
       E  1.98687e+01  1.77916e+01 -2.57478e+01
       E  8.17288e+00 -4.89646e+00  2.83161e+01
       E -5.43065e+01  1.83073e+01  4.64351e+01
3
# CELL(abcABC): 1322.94304  1322.94304  1322.94304    90.00000    90.00000    90.00000  Step:         900  Bead:      31 positions{angstrom}  cell{angstrom}
       E  4.14466e+01  1.51916e+01 -1.83798e+01
       E  3.23062e+01  2.45770e+01  2.64042e+01
       E -7.24217e+01  5.19111e+01  9.34451e+01
3
# CELL(abcABC): 1322.94304  1322.94304  1322.94304    90.00000    90.00000    90.00000  Step:        1000  Bead:      31 positions{angstrom}  cell{angstrom}
       E  9.57709e+00  4.84447e+00 -2.41381e+01
       E  2.05970e+01  2.94660e+00 -3.09507e+01
       E -2.01944e+01  5.89798e+00  9.78243e+01
3
# CELL(abcABC): 1322.94304  1322.94304  1322.94304    90.00000    90.00000    90.00000  Step:        1100  Bead:      31 positions{angstrom}  cell{angstrom}
       E  1.46514e+01  4.65960e+01 -8.96565e+00
       E  3.35759e+01  1.65403e+01 -2.06193e+01
       E -2.07028e+01  2.20744e+00  6.28685e+01
3
# CELL(abcABC): 1322.94304  1322.94304  1322.94304    90.00000    90.00000    90.00000  Step:        1200  Bead:      31 positions{angstrom}  cell{angstrom}
       E  1.12558e+01  3.17299e+01 -4.35436e+01
       E  7.07190e+00 -8.64219e+00 -3.17162e+01
       E  3.66671e+01  3.03483e+01  1.55360e+01
3
# CELL(abcABC): 1322.94304  1322.94304  1322.94304    90.00000    90.00000    90.00000  Step:        1300  Bead:      31 positions{angstrom}  cell{angstrom}
       E  3.97862e+00  2.18350e+01 -5.83648e+01
       E  1.38353e+01 -2.34030e+01 -5.34675e+01
       E -1.61484e+01  3.11945e+01 -3.16561e-01
3
# CELL(abcABC): 1322.94304  1322.94304  1322.94304    90.00000    90.00000    90.00000  Step:        1400  Bead:      31 positions{angstrom}  cell{angstrom}
       E -3.38671e+01  1.93145e+01 -5.00117e+01
       E  4.58901e+00 -1.55367e+01 -5.69074e+01
       E -4.85583e+01  5.40154e+01  3.09525e+01
3
# CELL(abcABC): 1322.94304  1322.94304  1322.94304    90.00000    90.00000    90.00000  Step:        1500  Bead:      31 positions{angstrom}  cell{angstrom}
       E -4.96225e+01  3.95164e+01 -5.84495e+01
       E -3.67435e+01 -3.08770e+01 -2.63899e+01
       E  1.32366e+01  7.17885e+01  5.85495e+01
3
# CELL(abcABC): 1322.94304  1322.94304  1322.94304    90.00000    90.00000    90.00000  Step:        1600  Bead:      31 positions{angstrom}  cell{angstrom}
       E -2.94485e+01  6.03779e+01 -8.39318e+01
       E -1.67231e+01 -2.98207e+01  4.53182e+00
       E -4.91820e+00  4.67063e+01  3.94647e+01
3
# CELL(abcABC): 1322.94304  1322.94304  1322.94304    90.00000    90.00000    90.00000  Step:        1700  Bead:      31 positions{angstrom}  cell{angstrom}
       E -2.56491e+01  3.10594e+01 -1.32885e+01
       E -2.89217e+01 -3.89443e+01 -2.24714e+01
       E -4.67509e+01  3.97758e+01  1.13686e+00
3
# CELL(abcABC): 1322.94304  1322.94304  1322.94304    90.00000    90.00000    90.00000  Step:        1800  Bead:      31 positions{angstrom}  cell{angstrom}
       E -4.23220e+01  3.33794e+01  1.14698e+01
       E -4.97540e+01 -6.62883e+00  6.46422e+00
       E -2.87034e+01  2.54666e+01  2.88680e+00
3
# CELL(abcABC): 1322.94304  1322.94304  1322.94304    90.00000    90.00000    90.00000  Step:        1900  Bead:      31 positions{angstrom}  cell{angstrom}
       E -3.84328e+01  3.05057e+01  3.47476e+01
       E -2.60861e+01 -1.67169e+01  1.15454e+01
       E -4.79439e+01  2.45962e+01  4.74708e+00
3
# CELL(abcABC): 1322.94304  1322.94304  1322.94304    90.00000    90.00000    90.00000  Step:        2000  Bead:      31 positions{angstrom}  cell{angstrom}
       E -3.46684e+00 -2.28451e+01  4.69431e+01
       E  1.01851e-01 -2.40302e+01  2.71832e+00
       E -4.10288e+01  3.63255e+01  7.28211e+00
3
# CELL(abcABC): 1322.94304  1322.94304  1322.94304    90.00000    90.00000    90.00000  Step:        2100  Bead:      31 positions{angstrom}  cell{angstrom}
       E -1.42055e+01 -7.30952e+01  3.07690e+01
       E -4.69801e+01 -5.76738e+00 -8.95649e+00
       E -5.87828e+01  7.79763e+01 -1.49468e+01
3
# CELL(abcABC): 1322.94304  1322.94304  1322.94304    90.00000    90.00000    90.00000  Step:        2200  Bead:      31 positions{angstrom}  cell{angstrom}
       E  1.32586e+01 -1.01191e+02 -2.92249e+00
       E -4.47346e+01  9.64563e+00  1.46882e+01
       E -7.60637e+01  6.52692e+01  1.86768e+01
3
# CELL(abcABC): 1322.94304  1322.94304  1322.94304    90.00000    90.00000    90.00000  Step:        2300  Bead:      31 positions{angstrom}  cell{angstrom}
       E  7.06568e+00 -6.67434e+01 -1.11220e+01
       E -3.74686e+01 -3.02480e+01 -2.13314e+01
       E -5.00494e+01  6.97333e+01  2.12666e+01
3
# CELL(abcABC): 1322.94304  1322.94304  1322.94304    90.00000    90.00000    90.00000  Step:        2400  Bead:      31 positions{angstrom}  cell{angstrom}
       E -2.36167e+01 -4.14748e+01  1.75272e+01
       E -3.17446e+01 -3.75696e+01 -3.25178e+01
       E -2.20611e+01  4.50446e+01  3.13406e+01
3
# CELL(abcABC): 1322.94304  1322.94304  1322.94304    90.00000    90.00000    90.00000  Step:        2500  Bead:      31 positions{angstrom}  cell{angstrom}
       E -2.36132e+01 -1.02824e+01  3.37733e+01
       E -2.31685e+01 -3.38660e+01  7.98485e+00
       E -3.28720e+01 -1.59814e+01  5.55198e+01
3
# CELL(abcABC): 1322.94304  1322.94304  1322.94304    90.00000    90.00000    90.00000  Step:        2600  Bead:      31 positions{angstrom}  cell{angstrom}
       E -2.63454e+01 -2.08296e+01  7.59008e+01
       E -2.97316e+01 -8.19929e+01 -2.78417e+01
       E  2.26449e+01  2.78497e+00  6.86072e+01
3
# CELL(abcABC): 1322.94304  1322.94304  1322.94304    90.00000    90.00000    90.00000  Step:        2700  Bead:      31 positions{angstrom}  cell{angstrom}
       E -2.62538e+01 -5.53894e+01  1.11791e+02
       E -6.07083e+01 -5.20619e+01  5.16051e+00
       E -2.48333e+01 -2.89779e+01  5.30564e+01
3
# CELL(abcABC): 1322.94304  1322.94304  1322.94304    90.00000    90.00000    90.00000  Step:        2800  Bead:      31 positions{angstrom}  cell{angstrom}
       E -1.36647e+01 -5.47475e+01  8.36369e+01
       E -5.66254e+01 -3.43715e+01 -2.36768e+00
       E  1.25655e+01 -1.31021e+01  5.96954e+01
3
# CELL(abcABC): 1322.94304  1322.94304  1322.94304    90.00000    90.00000    90.00000  Step:        2900  Bead:      31 positions{angstrom}  cell{angstrom}
       E -6.16677e+01 -1.00470e+02  5.04319e+01
       E -4.88943e+01 -5.60423e+01  1.52650e+01
       E  2.12956e+01 -3.04036e+01  6.08139e+01
3
# CELL(abcABC): 1322.94304  1322.94304  1322.94304    90.00000    90.00000    90.00000  Step:        3000  Bead:      31 positions{angstrom}  cell{angstrom}
       E -6.76808e+01 -6.34055e+01  2.25422e+01
       E -2.96243e+01 -5.42060e+01 -1.16654e+00
       E  6.74438e+01 -9.70591e+00  5.40257e+01
3
# CELL(abcABC): 1322.94304  1322.94304  1322.94304    90.00000    90.00000    90.00000  Step:        3100  Bead:      31 positions{angstrom}  cell{angstrom}
       E -9.11683e+01 -4.98293e+01  4.85953e+01
       E -2.84574e+01 -4.99660e+01  3.96719e+01
       E  5.68450e+01  9.47404e+00  7.73010e+00
3
# CELL(abcABC): 1322.94304  1322.94304  1322.94304    90.00000    90.00000    90.00000  Step:        3200  Bead:      31 positions{angstrom}  cell{angstrom}
       E -9.16745e+01 -5.30069e+01  3.26729e+01
       E -5.58833e+01 -4.88659e+01  3.46036e+01
       E  6.58578e+01  2.73497e+01  4.54869e+01
3
# CELL(abcABC): 1322.94304  1322.94304  1322.94304    90.00000    90.00000    90.00000  Step:        3300  Bead:      31 positions{angstrom}  cell{angstrom}
       E -9.02017e+01 -1.31018e+00  9.03433e+01
       E -6.16695e+01 -2.08863e+01  6.85603e+01
       E  5.78640e+01  6.85691e+01  8.28635e+01
3
# CELL(abcABC): 1322.94304  1322.94304  1322.94304    90.00000    90.00000    90.00000  Step:        3400  Bead:      31 positions{angstrom}  cell{angstrom}
       E -7.62640e+01 -7.70405e+00  6.97888e+01
       E -6.26530e+01 -1.61300e+01  5.39623e+01
       E  2.58607e+01  7.25008e+01  4.68549e+01
3
# CELL(abcABC): 1322.94304  1322.94304  1322.94304    90.00000    90.00000    90.00000  Step:        3500  Bead:      31 positions{angstrom}  cell{angstrom}
       E -9.99754e+01 -4.12106e+01  3.41638e+01
       E -7.98007e+01 -3.53204e+01  3.56494e+01
       E  5.18808e-01  7.10227e+01  3.28563e+01
3
# CELL(abcABC): 1322.94304  1322.94304  1322.94304    90.00000    90.00000    90.00000  Step:        3600  Bead:      31 positions{angstrom}  cell{angstrom}
       E -8.80387e+01 -4.78334e+01  7.38041e+00
       E -5.30497e+01 -3.25950e+01  3.36462e+01
       E -4.74670e+01  1.60087e+01  1.17259e+01
3
# CELL(abcABC): 1322.94304  1322.94304  1322.94304    90.00000    90.00000    90.00000  Step:        3700  Bead:      31 positions{angstrom}  cell{angstrom}
       E -6.72600e+01 -5.73045e+01 -1.83105e+01
       E -1.02185e+00 -2.72039e+01 -1.86456e+01
       E -6.21854e+01  1.70594e+01  1.58635e+01
3
# CELL(abcABC): 1322.94304  1322.94304  1322.94304    90.00000    90.00000    90.00000  Step:        3800  Bead:      31 positions{angstrom}  cell{angstrom}
       E -6.33458e+01 -4.27418e+01  2.18949e+01
       E  3.76009e+00 -2.94165e+01 -1.98504e+01
       E -1.81281e+01 -3.87708e+01 -1.34986e+01
3
# CELL(abcABC): 1322.94304  1322.94304  1322.94304    90.00000    90.00000    90.00000  Step:        3900  Bead:      31 positions{angstrom}  cell{angstrom}
       E -8.70652e+01 -2.76083e+01 -1.75173e+01
       E -3.94234e+01 -2.98947e+01 -2.19986e+01
       E  7.71996e+00 -3.71877e+01  3.99587e+01
3
# CELL(abcABC): 1322.94304  1322.94304  1322.94304    90.00000    90.00000    90.00000  Step:        4000  Bead:      31 positions{angstrom}  cell{angstrom}
       E -1.00094e+02  1.00207e+01 -1.01491e+01
       E -4.17847e+01 -4.68277e+00 -1.86708e+00
       E -2.27696e+00 -4.09180e+01  1.74440e+01
3
# CELL(abcABC): 1322.94304  1322.94304  1322.94304    90.00000    90.00000    90.00000  Step:        4100  Bead:      31 positions{angstrom}  cell{angstrom}
       E -1.17074e+02  3.48679e+01 -3.09423e+01
       E -2.44568e+01  1.70169e+01  5.41328e+00
       E -2.61684e+01  4.70078e+00 -1.90062e+01
3
# CELL(abcABC): 1322.94304  1322.94304  1322.94304    90.00000    90.00000    90.00000  Step:        4200  Bead:      31 positions{angstrom}  cell{angstrom}
       E -7.50757e+01  1.49787e+01 -7.52169e+01
       E -3.78183e+01  3.46365e+01 -4.62744e-01
       E -2.15499e+01 -2.97633e+01 -1.23304e+01
3
# CELL(abcABC): 1322.94304  1322.94304  1322.94304    90.00000    90.00000    90.00000  Step:        4300  Bead:      31 positions{angstrom}  cell{angstrom}
       E -9.06142e+01  1.50391e+01 -1.06544e+02
       E -1.89450e+01  4.34915e+01  6.19803e+00
       E  1.76906e+01 -1.58114e+01  2.07733e+01
3
# CELL(abcABC): 1322.94304  1322.94304  1322.94304    90.00000    90.00000    90.00000  Step:        4400  Bead:      31 positions{angstrom}  cell{angstrom}
       E -3.61197e+01  6.40903e+01 -1.00983e+02
       E -6.12282e+01  6.12189e+01  2.69760e+01
       E -1.60016e+01 -1.27307e+01  1.26980e+01
3
# CELL(abcABC): 1322.94304  1322.94304  1322.94304    90.00000    90.00000    90.00000  Step:        4500  Bead:      31 positions{angstrom}  cell{angstrom}
       E -5.94110e+01  2.03278e+01 -7.33028e+01
       E -6.25308e+01  4.87661e+01  3.17855e+01
       E -1.83039e+01 -6.91830e+00  4.56671e+00
3
# CELL(abcABC): 1322.94304  1322.94304  1322.94304    90.00000    90.00000    90.00000  Step:        4600  Bead:      31 positions{angstrom}  cell{angstrom}
       E -4.08315e+01  3.43553e+01 -3.08266e+01
       E -5.52884e+01  5.43437e+01  3.11409e+01
       E  2.38530e+01 -2.52245e+01 -1.03443e+00
3
# CELL(abcABC): 1322.94304  1322.94304  1322.94304    90.00000    90.00000    90.00000  Step:        4700  Bead:      31 positions{angstrom}  cell{angstrom}
       E  1.75611e-01  2.05293e+01 -4.26866e+01
       E -5.78846e+01  3.60998e+00  2.47397e-01
       E  2.03343e+01 -2.53948e+01  3.08444e+01
3
# CELL(abcABC): 1322.94304  1322.94304  1322.94304    90.00000    90.00000    90.00000  Step:        4800  Bead:      31 positions{angstrom}  cell{angstrom}
       E  1.61931e+01  5.69824e+01 -3.01705e+01
       E -5.89305e+01 -1.79237e+01 -2.95254e+01
       E  2.24008e+01 -2.48639e+01 -2.36479e+01
3
# CELL(abcABC): 1322.94304  1322.94304  1322.94304    90.00000    90.00000    90.00000  Step:        4900  Bead:      31 positions{angstrom}  cell{angstrom}
       E  3.09021e+01  2.56943e+01 -3.83517e+01
       E -5.46616e+01 -6.02883e+01 -2.16397e+01
       E  1.47721e+01 -9.19054e+00 -2.62883e+01
3
# CELL(abcABC): 1322.94304  1322.94304  1322.94304    90.00000    90.00000    90.00000  Step:        5000  Bead:      31 positions{angstrom}  cell{angstrom}
       E  6.98594e+01  1.83918e+01 -2.82532e+01
       E -6.75200e+01 -4.21808e+01 -4.10039e+01
       E  3.11797e+01 -2.23486e+01 -5.00129e+00
3
# CELL(abcABC): 1322.94304  1322.94304  1322.94304    90.00000    90.00000    90.00000  Step:        5100  Bead:      31 positions{angstrom}  cell{angstrom}
       E  7.80729e+01  6.58539e+01  2.28093e+01
       E -8.18127e+01 -3.26666e+01 -1.57896e+01
       E  1.22414e+01 -1.27576e+01  9.15926e-02
3
# CELL(abcABC): 1322.94304  1322.94304  1322.94304    90.00000    90.00000    90.00000  Step:        5200  Bead:      31 positions{angstrom}  cell{angstrom}
       E  3.27315e+01  1.92309e+01 -5.18101e+00
       E -8.30856e+01  2.28682e+00  1.61517e+00
       E  7.81818e+00  1.47393e+01 -2.97756e+01
3
# CELL(abcABC): 1322.94304  1322.94304  1322.94304    90.00000    90.00000    90.00000  Step:        5300  Bead:      31 positions{angstrom}  cell{angstrom}
       E  1.85123e+01  4.11901e+00  9.32944e+00
       E -5.61562e+01  3.41748e+01 -2.20036e+00
       E -8.73599e+00  2.97755e+01  7.94995e+00
3
# CELL(abcABC): 1322.94304  1322.94304  1322.94304    90.00000    90.00000    90.00000  Step:        5400  Bead:      31 positions{angstrom}  cell{angstrom}
       E -4.51584e+00  4.76346e+00 -9.20899e+00
       E -7.18082e+01  3.15779e+01 -2.44558e+01
       E  1.30346e+01  3.60940e+01  1.95780e+01
3
# CELL(abcABC): 1322.94304  1322.94304  1322.94304    90.00000    90.00000    90.00000  Step:        5500  Bead:      31 positions{angstrom}  cell{angstrom}
       E  3.53783e+01  2.48727e+01  2.03320e+00
       E -3.44375e+01  1.12181e+01 -2.38051e+00
       E -2.47945e+01  4.32827e+01  8.18090e+00
3
# CELL(abcABC): 1322.94304  1322.94304  1322.94304    90.00000    90.00000    90.00000  Step:        5600  Bead:      31 positions{angstrom}  cell{angstrom}
       E  3.37511e+01  1.88468e+01 -3.01463e+00
       E -3.05693e+01  3.12053e+01 -5.43362e+00
       E -3.88613e+01  2.41265e+01  4.34867e+00
3
# CELL(abcABC): 1322.94304  1322.94304  1322.94304    90.00000    90.00000    90.00000  Step:        5700  Bead:      31 positions{angstrom}  cell{angstrom}
       E  1.36944e+01  7.33650e+00 -2.64173e+01
       E -1.40640e+01  9.93589e+00 -2.10466e+01
       E -5.05216e+01 -1.99910e+01  2.62378e+01
3
# CELL(abcABC): 1322.94304  1322.94304  1322.94304    90.00000    90.00000    90.00000  Step:        5800  Bead:      31 positions{angstrom}  cell{angstrom}
       E -1.55260e+01  3.70419e+01 -3.40921e+00
       E -1.08643e+01  4.16366e+00  8.02380e+00
       E -2.94885e+01 -3.82834e+01 -2.32651e+01
3
# CELL(abcABC): 1322.94304  1322.94304  1322.94304    90.00000    90.00000    90.00000  Step:        5900  Bead:      31 positions{angstrom}  cell{angstrom}
       E -1.08568e+01  2.15792e+01  1.10665e+01
       E -9.25468e+00  2.82328e+01 -1.76554e+01
       E -9.87134e+00 -4.59387e+01  4.14562e+00
3
# CELL(abcABC): 1322.94304  1322.94304  1322.94304    90.00000    90.00000    90.00000  Step:        6000  Bead:      31 positions{angstrom}  cell{angstrom}
       E -8.72970e+00 -9.84857e+00 -4.27570e+01
       E -4.49354e+00 -2.11566e+01 -3.18509e+01
       E  2.06335e+00 -5.57905e+01 -9.39100e-01
3
# CELL(abcABC): 1322.94304  1322.94304  1322.94304    90.00000    90.00000    90.00000  Step:        6100  Bead:      31 positions{angstrom}  cell{angstrom}
       E  4.72158e+01 -3.10762e+01 -4.57126e+01
       E  2.66565e+01 -2.23167e+01 -4.23479e+01
       E  8.41475e+00 -3.65348e+01  6.73677e-01
3
# CELL(abcABC): 1322.94304  1322.94304  1322.94304    90.00000    90.00000    90.00000  Step:        6200  Bead:      31 positions{angstrom}  cell{angstrom}
       E  3.89624e+01 -6.91958e+01 -7.08553e+01
       E  6.97503e+01 -2.02810e+01  2.21938e+00
       E  1.51274e+01 -5.06626e+01 -8.23179e+00
3
# CELL(abcABC): 1322.94304  1322.94304  1322.94304    90.00000    90.00000    90.00000  Step:        6300  Bead:      31 positions{angstrom}  cell{angstrom}
       E  5.63227e+01 -8.07192e+01 -1.12267e+02
       E  6.38936e+01 -2.85711e+01 -1.40414e+01
       E  1.56034e+01 -2.63916e+01  1.11409e+01
3
# CELL(abcABC): 1322.94304  1322.94304  1322.94304    90.00000    90.00000    90.00000  Step:        6400  Bead:      31 positions{angstrom}  cell{angstrom}
       E  1.82034e+01 -8.50081e+01 -1.09255e+02
       E  5.82836e+01 -1.66389e+01 -2.86094e+01
       E  9.22861e+00 -1.62246e+01  3.29651e+01
3
# CELL(abcABC): 1322.94304  1322.94304  1322.94304    90.00000    90.00000    90.00000  Step:        6500  Bead:      31 positions{angstrom}  cell{angstrom}
       E  3.17840e+01 -7.66319e+01 -1.16407e+02
       E  1.57391e+01  7.89314e+00 -5.68777e+01
       E -7.51853e-01 -8.63101e+00 -1.28398e+01
3
# CELL(abcABC): 1322.94304  1322.94304  1322.94304    90.00000    90.00000    90.00000  Step:        6600  Bead:      31 positions{angstrom}  cell{angstrom}
       E  1.85021e+01 -8.22798e+01 -1.25058e+02
       E  1.30106e+01 -8.03924e+00 -9.23397e+00
       E -2.12138e+01 -6.18727e+01  8.32964e+00
3
# CELL(abcABC): 1322.94304  1322.94304  1322.94304    90.00000    90.00000    90.00000  Step:        6700  Bead:      31 positions{angstrom}  cell{angstrom}
       E  2.12080e+01 -8.78683e+01 -1.23452e+02
       E  2.05906e+01 -1.23155e+01 -3.82876e+01
       E -3.14273e+01 -3.56979e+01  3.63836e+01
3
# CELL(abcABC): 1322.94304  1322.94304  1322.94304    90.00000    90.00000    90.00000  Step:        6800  Bead:      31 positions{angstrom}  cell{angstrom}
       E  3.52383e+01 -8.07668e+01 -1.05286e+02
       E  3.83667e+01 -9.39881e+00 -2.43639e+01
       E -1.71795e+01 -1.57903e+01  6.59356e+01
3
# CELL(abcABC): 1322.94304  1322.94304  1322.94304    90.00000    90.00000    90.00000  Step:        6900  Bead:      31 positions{angstrom}  cell{angstrom}
       E -9.02802e+00 -9.79836e+01 -4.38469e+01
       E  2.12550e+01 -2.42425e+01  4.06880e+00
       E -4.64477e+00 -2.75632e+01  1.11545e+01
3
# CELL(abcABC): 1322.94304  1322.94304  1322.94304    90.00000    90.00000    90.00000  Step:        7000  Bead:      31 positions{angstrom}  cell{angstrom}
       E  6.82255e+00 -5.65815e+01 -2.37390e+01
       E -7.11250e+00  3.96789e+01 -6.97932e+00
       E  4.58940e+01  8.12240e+00  5.55440e+01
3
# CELL(abcABC): 1322.94304  1322.94304  1322.94304    90.00000    90.00000    90.00000  Step:        7100  Bead:      31 positions{angstrom}  cell{angstrom}
       E -6.69941e+00 -3.78630e+01 -3.68207e+01
       E -6.14893e+00  4.16298e+01  5.90433e+00
       E  4.34911e+01  2.24845e+01  7.58632e+00
3
# CELL(abcABC): 1322.94304  1322.94304  1322.94304    90.00000    90.00000    90.00000  Step:        7200  Bead:      31 positions{angstrom}  cell{angstrom}
       E -1.97096e+01 -2.78887e+01 -7.16507e+01
       E -2.32854e+01  5.59160e+01  3.41497e+01
       E  3.73176e+01  5.35943e+01  6.41888e+00
3
# CELL(abcABC): 1322.94304  1322.94304  1322.94304    90.00000    90.00000    90.00000  Step:        7300  Bead:      31 positions{angstrom}  cell{angstrom}
       E  4.10688e+01 -7.00818e+00 -6.48986e+01
       E -3.23321e+01  2.75648e+01  3.14558e+01
       E  5.31649e+01  1.96226e+01 -1.56734e+01
3
# CELL(abcABC): 1322.94304  1322.94304  1322.94304    90.00000    90.00000    90.00000  Step:        7400  Bead:      31 positions{angstrom}  cell{angstrom}
       E  2.76300e+01  1.72673e+00 -1.83179e+01
       E -1.03540e+00  2.00068e+01  1.58515e+01
       E  5.59055e+01  3.01305e+01 -4.82876e+01
3
# CELL(abcABC): 1322.94304  1322.94304  1322.94304    90.00000    90.00000    90.00000  Step:        7500  Bead:      31 positions{angstrom}  cell{angstrom}
       E -3.03453e+01 -3.48585e+01 -8.00850e+00
       E -3.79073e+01 -6.92077e+00  2.73654e+01
       E  5.39320e+01  4.93203e+01 -3.00562e+01
3
# CELL(abcABC): 1322.94304  1322.94304  1322.94304    90.00000    90.00000    90.00000  Step:        7600  Bead:      31 positions{angstrom}  cell{angstrom}
       E -2.73018e+01 -6.41570e+01 -2.43498e+01
       E -2.66834e+01 -3.85801e+01 -1.03635e+01
       E  6.10799e+01  8.73556e+01 -1.72031e+01
3
# CELL(abcABC): 1322.94304  1322.94304  1322.94304    90.00000    90.00000    90.00000  Step:        7700  Bead:      31 positions{angstrom}  cell{angstrom}
       E -9.73070e+00 -6.10209e+01 -5.76874e+01
       E  7.26186e+00 -6.44871e+01  1.01230e+01
       E  7.32097e+01  1.26096e+01 -3.04395e+01
3
# CELL(abcABC): 1322.94304  1322.94304  1322.94304    90.00000    90.00000    90.00000  Step:        7800  Bead:      31 positions{angstrom}  cell{angstrom}
       E -1.93219e+00 -5.02433e+01 -5.28540e+01
       E  1.64244e+01 -4.71437e+01 -3.18501e+01
       E  4.81676e+01  5.95814e-01 -3.36819e+01
3
# CELL(abcABC): 1322.94304  1322.94304  1322.94304    90.00000    90.00000    90.00000  Step:        7900  Bead:      31 positions{angstrom}  cell{angstrom}
       E  2.51037e+01  1.03882e+00 -2.63693e+01
       E  3.69640e+01 -1.83286e+01 -4.16770e+01
       E  9.38332e+01 -9.04644e+00 -5.21102e+01
3
# CELL(abcABC): 1322.94304  1322.94304  1322.94304    90.00000    90.00000    90.00000  Step:        8000  Bead:      31 positions{angstrom}  cell{angstrom}
       E  3.06730e+01  2.35461e+01 -4.29776e+00
       E  4.16917e-01 -1.64329e+01 -5.58067e+01
       E  4.70278e+01 -1.27746e+01 -2.71458e+01
3
# CELL(abcABC): 1322.94304  1322.94304  1322.94304    90.00000    90.00000    90.00000  Step:        8100  Bead:      31 positions{angstrom}  cell{angstrom}
       E  5.73887e+01  4.02164e+01  3.51207e+00
       E -7.65649e+00 -1.41246e+01 -7.18236e+01
       E -1.44962e+01 -2.48660e+01 -4.58908e-01
3
# CELL(abcABC): 1322.94304  1322.94304  1322.94304    90.00000    90.00000    90.00000  Step:        8200  Bead:      31 positions{angstrom}  cell{angstrom}
       E  2.54211e+01  2.10122e+01  3.03508e+00
       E  9.35805e-01  2.12295e+01 -1.89824e+01
       E -4.92885e+00 -4.34866e+01  2.72169e+00
3
# CELL(abcABC): 1322.94304  1322.94304  1322.94304    90.00000    90.00000    90.00000  Step:        8300  Bead:      31 positions{angstrom}  cell{angstrom}
       E  3.84182e+01  2.69571e+01 -6.09448e+00
       E  4.47996e+01  6.62947e+00  1.12042e+01
       E  6.03967e+00 -5.74518e+01  2.45769e+01
3
# CELL(abcABC): 1322.94304  1322.94304  1322.94304    90.00000    90.00000    90.00000  Step:        8400  Bead:      31 positions{angstrom}  cell{angstrom}
       E  3.06089e+01 -9.58748e+00 -1.53242e+01
       E  1.17334e+01  1.37213e+01  1.15903e+01
       E  1.57790e+01 -3.04168e+01  3.15223e+01
3
# CELL(abcABC): 1322.94304  1322.94304  1322.94304    90.00000    90.00000    90.00000  Step:        8500  Bead:      31 positions{angstrom}  cell{angstrom}
       E  1.04020e+01  1.24613e+01 -8.51472e+00
       E  1.37798e+01  3.52569e+01  3.14020e+01
       E  3.97614e+01  9.46582e+00  4.28203e+01
3
# CELL(abcABC): 1322.94304  1322.94304  1322.94304    90.00000    90.00000    90.00000  Step:        8600  Bead:      31 positions{angstrom}  cell{angstrom}
       E -1.66842e+01  3.20782e+00 -2.15981e+01
       E  4.49529e+01 -8.62886e+00  2.14952e+01
       E  5.55293e+01  1.15111e+01  2.52383e+01
3
# CELL(abcABC): 1322.94304  1322.94304  1322.94304    90.00000    90.00000    90.00000  Step:        8700  Bead:      31 positions{angstrom}  cell{angstrom}
       E -5.61052e+01  1.77173e+01 -2.60236e+01
       E  9.77653e+00 -1.25641e+01 -2.45185e+00
       E  9.12524e+01 -4.20017e+00  3.68505e+01
3
# CELL(abcABC): 1322.94304  1322.94304  1322.94304    90.00000    90.00000    90.00000  Step:        8800  Bead:      31 positions{angstrom}  cell{angstrom}
       E -2.39596e+01  2.76889e+01 -2.54700e+01
       E  6.99169e+00 -3.63413e+01  2.77244e+01
       E  6.50780e+01 -5.22182e+01  2.76672e+01
3
# CELL(abcABC): 1322.94304  1322.94304  1322.94304    90.00000    90.00000    90.00000  Step:        8900  Bead:      31 positions{angstrom}  cell{angstrom}
       E -1.60134e+01  2.77018e+01 -2.29883e+01
       E -1.12584e+01 -4.99749e+01  4.84341e+01
       E  4.25002e+01 -9.81252e+01  5.39926e+01
3
# CELL(abcABC): 1322.94304  1322.94304  1322.94304    90.00000    90.00000    90.00000  Step:        9000  Bead:      31 positions{angstrom}  cell{angstrom}
       E -3.01652e+01  8.22916e+01  8.68162e-01
       E -6.53985e+01 -5.81307e+01  2.60947e+01
       E  1.30139e+01 -6.81398e+01  5.87753e-02
3
# CELL(abcABC): 1322.94304  1322.94304  1322.94304    90.00000    90.00000    90.00000  Step:        9100  Bead:      31 positions{angstrom}  cell{angstrom}
       E  1.23229e+01  2.88749e+01  2.66411e+01
       E -3.90133e+01 -4.70589e+00  9.99192e+00
       E -1.23790e+00 -7.36447e+01 -6.40567e+00
3
# CELL(abcABC): 1322.94304  1322.94304  1322.94304    90.00000    90.00000    90.00000  Step:        9200  Bead:      31 positions{angstrom}  cell{angstrom}
       E  1.78995e+01  3.50172e+01 -3.88045e+00
       E -1.28524e+01  6.01620e+00  5.65516e+01
       E  2.15490e+01 -4.90373e+01 -1.26250e+01
3
# CELL(abcABC): 1322.94304  1322.94304  1322.94304    90.00000    90.00000    90.00000  Step:        9300  Bead:      31 positions{angstrom}  cell{angstrom}
       E  4.27400e+01  6.07705e+01 -6.92814e+01
       E -6.85682e+00 -5.82828e+01  4.71213e+01
       E  7.25886e+01 -1.26736e+01  1.24957e+01
3
# CELL(abcABC): 1322.94304  1322.94304  1322.94304    90.00000    90.00000    90.00000  Step:        9400  Bead:      31 positions{angstrom}  cell{angstrom}
       E  2.82267e+01  3.53719e+01 -3.79467e+01
       E  5.20236e+00 -5.44797e+01  9.77342e+00
       E  1.42240e+01  4.99723e-01 -9.51999e+00
3
# CELL(abcABC): 1322.94304  1322.94304  1322.94304    90.00000    90.00000    90.00000  Step:        9500  Bead:      31 positions{angstrom}  cell{angstrom}
       E  1.99090e+01  1.06933e+01 -3.15161e+01
       E  8.11599e+00 -2.52911e+01  3.37358e+01
       E -2.57288e+00 -1.65337e+01 -1.91278e+01
3
# CELL(abcABC): 1322.94304  1322.94304  1322.94304    90.00000    90.00000    90.00000  Step:        9600  Bead:      31 positions{angstrom}  cell{angstrom}
       E -1.09638e+01 -5.87831e+00 -5.01082e+01
       E  2.74241e+01 -2.71683e+01  1.52824e+01
       E -7.12523e+00 -3.52432e+01 -1.20774e+01
3
# CELL(abcABC): 1322.94304  1322.94304  1322.94304    90.00000    90.00000    90.00000  Step:        9700  Bead:      31 positions{angstrom}  cell{angstrom}
       E -4.66245e+01 -7.02762e+01 -5.84935e+01
       E  5.04613e+01 -5.63333e+01 -2.45950e+01
       E -2.50849e+01 -4.71454e+00 -1.46277e+01
3
# CELL(abcABC): 1322.94304  1322.94304  1322.94304    90.00000    90.00000    90.00000  Step:        9800  Bead:      31 positions{angstrom}  cell{angstrom}
       E -1.18961e+01 -6.86061e+01 -6.60192e+01
       E  3.86646e+01 -7.99394e+01 -2.55123e+01
       E  1.72705e+00 -2.17901e+01 -8.06681e-01
3