3
# CELL(abcABC): 1322.94304  1322.94304  1322.94304    90.00000    90.00000    90.00000  Step:           0  Bead:      13 positions{angstrom}  cell{angstrom}
       E  0.00000e+00  0.00000e+00  0.00000e+00
       E  0.00000e+00  0.00000e+00  0.00000e+00
       E  0.00000e+00  0.00000e+00  0.00000e+00
3
# CELL(abcABC): 1322.94304  1322.94304  1322.94304    90.00000    90.00000    90.00000  Step:         100  Bead:      13 positions{angstrom}  cell{angstrom}
       E -1.12507e+01 -1.67773e+01  1.43695e+01
       E  3.51987e+01  2.46132e+00  7.33091e-01
       E -3.41532e+01  1.14406e+01 -2.51080e+01
3
# CELL(abcABC): 1322.94304  1322.94304  1322.94304    90.00000    90.00000    90.00000  Step:         200  Bead:      13 positions{angstrom}  cell{angstrom}
       E  7.69794e+00  4.67430e+00  6.02147e+00
       E  2.03868e+01 -1.48169e+01 -3.44268e+01
       E -4.19521e+01  6.78854e+00 -4.52796e+00
3
# CELL(abcABC): 1322.94304  1322.94304  1322.94304    90.00000    90.00000    90.00000  Step:         300  Bead:      13 positions{angstrom}  cell{angstrom}
       E -1.83246e+01  3.86392e+01 -3.48939e-01
       E  2.00347e+01 -8.64267e+00 -4.49570e+01
       E -3.69527e+01  3.70355e+01  1.79541e+01
3
# CELL(abcABC): 1322.94304  1322.94304  1322.94304    90.00000    90.00000    90.00000  Step:         400  Bead:      13 positions{angstrom}  cell{angstrom}
       E -2.50250e+01  1.92864e+01  9.83185e+00
       E  2.50610e+01  3.88655e+01 -1.08761e+01
       E -2.50273e+01  3.79140e+01  7.44351e+00
3
# CELL(abcABC): 1322.94304  1322.94304  1322.94304    90.00000    90.00000    90.00000  Step:         500  Bead:      13 positions{angstrom}  cell{angstrom}
       E -2.61217e+01  1.97997e+01 -2.58972e+01
       E  4.71236e+01  2.88935e+01 -4.36061e+00
       E  8.06033e+00  1.59975e+01  3.09521e+01
3
# CELL(abcABC): 1322.94304  1322.94304  1322.94304    90.00000    90.00000    90.00000  Step:         600  Bead:      13 positions{angstrom}  cell{angstrom}
       E  1.56406e+01  1.38727e+01 -5.15744e+01
       E  3.46872e+01 -5.06637e+00  3.05138e+01
       E -1.82056e-01 -1.16111e+01  2.36534e+01
3
# CELL(abcABC): 1322.94304  1322.94304  1322.94304    90.00000    90.00000    90.00000  Step:         700  Bead:      13 positions{angstrom}  cell{angstrom}
       E -3.81178e+01  2.15335e+01 -3.48666e+01
       E  2.55270e+01  3.23247e+01  4.04518e+01
       E  2.27869e+00  1.95215e+01  4.04133e+01
3
# CELL(abcABC): 1322.94304  1322.94304  1322.94304    90.00000    90.00000    90.00000  Step:         800  Bead:      13 positions{angstrom}  cell{angstrom}
       E -1.36979e+01  7.39433e+00 -1.86192e+01
       E -2.33760e+01  3.82055e+01 -1.63965e+01
       E -2.37023e+01  1.74463e+01  5.66789e+01
3
# CELL(abcABC): 1322.94304  1322.94304  1322.94304    90.00000    90.00000    90.00000  Step:         900  Bead:      13 positions{angstrom}  cell{angstrom}
       E  1.67274e+01  9.23377e+00 -2.38685e+01
       E  2.56638e+01  3.39273e+01 -2.83869e+01
       E -3.54787e+01 -5.27621e+00  8.47976e+01
3
# CELL(abcABC): 1322.94304  1322.94304  1322.94304    90.00000    90.00000    90.00000  Step:        1000  Bead:      13 positions{angstrom}  cell{angstrom}
       E  1.58483e+01 -3.11349e+00 -6.61301e+01
       E  3.35116e+01 -1.10764e+01 -4.66698e+01
       E -2.49961e+01 -5.73257e+00  6.99485e+01
3
# CELL(abcABC): 1322.94304  1322.94304  1322.94304    90.00000    90.00000    90.00000  Step:        1100  Bead:      13 positions{angstrom}  cell{angstrom}
       E  2.94990e+01  1.01736e+00 -6.56907e+01
       E -8.75764e+00 -1.09540e+01 -5.74808e+01
       E -2.70293e+01  5.42898e+01  6.50721e+01
3
# CELL(abcABC): 1322.94304  1322.94304  1322.94304    90.00000    90.00000    90.00000  Step:        1200  Bead:      13 positions{angstrom}  cell{angstrom}
       E -9.89522e+00  1.30481e+01 -9.77101e+01
       E  2.45191e+01 -8.34328e+00 -2.66386e+01
       E -1.23356e+01  4.05645e+01  6.15891e+01
3
# CELL(abcABC): 1322.94304  1322.94304  1322.94304    90.00000    90.00000    90.00000  Step:        1300  Bead:      13 positions{angstrom}  cell{angstrom}
       E -2.04524e+01  3.94365e+00 -8.57371e+01
       E  3.02437e+01 -5.66730e-01 -5.82570e+01
       E -1.11876e+01  4.02167e+01  2.78161e+01
3
# CELL(abcABC): 1322.94304  1322.94304  1322.94304    90.00000    90.00000    90.00000  Step:        1400  Bead:      13 positions{angstrom}  cell{angstrom}
       E  2.57921e+01  5.76022e+01 -9.46609e+01
       E  8.99623e+00 -2.36394e+01 -4.90471e+01
       E -2.01825e+01  3.21367e+01  1.84569e+01
3
# CELL(abcABC): 1322.94304  1322.94304  1322.94304    90.00000    90.00000    90.00000  Step:        1500  Bead:      13 positions{angstrom}  cell{angstrom}
       E -1.12563e+01  2.73237e+01 -9.30800e+01
       E -6.05671e+00 -3.91413e+01 -4.80950e+01
       E -3.68181e+01  2.26023e+01  4.30981e+01
3
# CELL(abcABC): 1322.94304  1322.94304  1322.94304    90.00000    90.00000    90.00000  Step:        1600  Bead:      13 positions{angstrom}  cell{angstrom}
       E  2.53812e+01  5.29471e+01 -5.57439e+01
       E -7.51470e+00  2.44058e+01 -1.26320e+01
       E -5.32028e+01  5.69396e+01  4.49620e+01
3
# CELL(abcABC): 1322.94304  1322.94304  1322.94304    90.00000    90.00000    90.00000  Step:        1700  Bead:      13 positions{angstrom}  cell{angstrom}
       E  5.15259e+00  2.02233e+00  9.77506e+00
       E -2.71021e-01  5.62628e+01 -8.22956e+00
       E -5.69784e+01  5.50873e+01  3.46348e+01
3
# CELL(abcABC): 1322.94304  1322.94304  1322.94304    90.00000    90.00000    90.00000  Step:        1800  Bead:      13 positions{angstrom}  cell{angstrom}
       E  1.79481e+01  3.08370e+01  3.08935e+01
       E -4.74159e+01  4.72913e+01  1.74483e+01
       E -8.36998e+01  6.51831e+01  4.73433e+01
3
# CELL(abcABC): 1322.94304  1322.94304  1322.94304    90.00000    90.00000    90.00000  Step:        1900  Bead:      13 positions{angstrom}  cell{angstrom}
       E  3.93393e+00  1.84547e+01  5.03605e+01
       E -8.25503e+01  5.87857e+01  3.64182e+01
       E -6.77038e+01  5.20724e+01  5.11155e+01
3
# CELL(abcABC): 1322.94304  1322.94304  1322.94304    90.00000    90.00000    90.00000  Step:        2000  Bead:      13 positions{angstrom}  cell{angstrom}
       E -2.63962e+01 -1.59119e+01  4.44260e+01
       E -4.95522e+01  5.57292e+01  4.82593e+00
       E -8.28811e+01  8.68486e+01  2.79723e+01
3
# CELL(abcABC): 1322.94304  1322.94304  1322.94304    90.00000    90.00000    90.00000  Step:        2100  Bead:      13 positions{angstrom}  cell{angstrom}
       E -2.90817e+01 -5.72846e+01  6.68390e+01
       E -3.44112e+01  2.37950e+01 -1.59945e+01
       E -9.09637e+01  7.78140e+01  3.09811e+01
3
# CELL(abcABC): 1322.94304  1322.94304  1322.94304    90.00000    90.00000    90.00000  Step:        2200  Bead:      13 positions{angstrom}  cell{angstrom}
       E -4.88823e+01 -5.18747e+01  7.06952e+01
       E -7.31436e+00 -2.96164e+01 -4.41662e+01
       E -5.59180e+01  8.44885e+01  8.97446e+00
3
# CELL(abcABC): 1322.94304  1322.94304  1322.94304    90.00000    90.00000    90.00000  Step:        2300  Bead:      13 positions{angstrom}  cell{angstrom}
       E -1.33265e+01 -6.85679e+01  4.65175e+01
       E -1.43154e+01 -2.26990e+01 -8.81900e+00
       E -3.80970e+01  5.45596e+01  2.28865e+01
3
# CELL(abcABC): 1322.94304  1322.94304  1322.94304    90.00000    90.00000    90.00000  Step:        2400  Bead:      13 positions{angstrom}  cell{angstrom}
       E -2.64607e+01 -6.33584e+01  1.99910e+01
       E  7.06371e+00 -1.46795e+01  3.04381e+00
       E -7.83452e+00  3.40564e+01  4.66027e+01
3
# CELL(abcABC): 1322.94304  1322.94304  1322.94304    90.00000    90.00000    90.00000  Step:        2500  Bead:      13 positions{angstrom}  cell{angstrom}
       E -2.43763e+01 -2.05655e+01  2.70911e+01
       E -1.08045e+00 -3.77157e+01 -5.09145e+01
       E  2.47773e+01 -4.18798e+00  1.97023e+01
3
# CELL(abcABC): 1322.94304  1322.94304  1322.94304    90.00000    90.00000    90.00000  Step:        2600  Bead:      13 positions{angstrom}  cell{angstrom}
       E -1.48354e+01 -8.96513e+00  4.24933e+01
       E -4.04647e+01 -4.69629e+01 -4.40481e+01
       E  6.34953e+00  5.87944e+00  1.83818e+01
3
# CELL(abcABC): 1322.94304  1322.94304  1322.94304    90.00000    90.00000    90.00000  Step:        2700  Bead:      13 positions{angstrom}  cell{angstrom}
       E -2.01867e+01  1.23740e+01  3.78831e+01
       E -4.96585e+01 -4.71122e+01 -3.19720e+01
       E  9.41942e+00 -8.14680e+00  3.95554e+01
3
# CELL(abcABC): 1322.94304  1322.94304  1322.94304    90.00000    90.00000    90.00000  Step:        2800  Bead:      13 positions{angstrom}  cell{angstrom}
       E -5.53710e+01 -3.62786e+01  1.70293e+01
       E -5.54981e+01 -5.51540e+01  7.47159e-01
       E  4.38135e+01  1.69810e+01  5.12086e+01
3
# CELL(abcABC): 1322.94304  1322.94304  1322.94304    90.00000    90.00000    90.00000  Step:        2900  Bead:      13 positions{angstrom}  cell{angstrom}
       E -4.33946e+01 -3.43895e+01  1.94861e+01
       E -6.05394e+01 -8.54948e+01 -2.03027e+01
       E  1.40280e+01  7.77429e+00  3.33576e+01
3
# CELL(abcABC): 1322.94304  1322.94304  1322.94304    90.00000    90.00000    90.00000  Step:        3000  Bead:      13 positions{angstrom}  cell{angstrom}
       E -5.06774e+01 -3.49600e+01  2.03088e+01
       E -5.05265e+01 -7.21440e+01 -2.50957e+00
       E  1.93723e+01  2.41023e+01  5.71758e+00
3
# CELL(abcABC): 1322.94304  1322.94304  1322.94304    90.00000    90.00000    90.00000  Step:        3100  Bead:      13 positions{angstrom}  cell{angstrom}
       E -4.19365e+01 -2.79965e+01  3.51829e+01
       E -6.69654e+01 -5.10224e+01  4.55174e+01
       E  3.80607e+01  5.37084e+01  3.70443e+01
3
# CELL(abcABC): 1322.94304  1322.94304  1322.94304    90.00000    90.00000    90.00000  Step:        3200  Bead:      13 positions{angstrom}  cell{angstrom}
       E -3.54824e+01 -4.13396e+01  2.68281e+01
       E -9.58795e+01 -3.93679e+01  4.46148e+01
       E  5.78612e+01  9.38695e+01  5.20978e+01
3
# CELL(abcABC): 1322.94304  1322.94304  1322.94304    90.00000    90.00000    90.00000  Step:        3300  Bead:      13 positions{angstrom}  cell{angstrom}
       E -4.88855e+01 -4.26795e+01 -1.54012e+01
       E -7.96680e+01 -3.33604e+01  6.17222e+01
       E  1.00878e+01  9.48740e+01  4.72542e+01
3
# CELL(abcABC): 1322.94304  1322.94304  1322.94304    90.00000    90.00000    90.00000  Step:        3400  Bead:      13 positions{angstrom}  cell{angstrom}
       E -3.60467e+01 -9.28717e+00  2.37764e+01
       E -7.92354e+01 -2.77233e+01  7.19838e+01
       E -5.36487e+00  6.64499e+01  4.01699e+01
3
# CELL(abcABC): 1322.94304  1322.94304  1322.94304    90.00000    90.00000    90.00000  Step:        3500  Bead:      13 positions{angstrom}  cell{angstrom}
       E -5.85418e+01  9.85564e+00  4.33273e+01
       E -4.21851e+01 -1.54894e+01  4.61499e+01
       E  2.93745e+00  6.63462e+01  5.15820e+01
3
# CELL(abcABC): 1322.94304  1322.94304  1322.94304    90.00000    90.00000    90.00000  Step:        3600  Bead:      13 positions{angstrom}  cell{angstrom}
       E -4.81688e+01 -8.48090e+00  2.78590e+01
       E -3.06918e+01 -1.54634e+01 -3.12707e+00
       E  5.38437e+01  6.96804e+01  2.96538e+01
3
# CELL(abcABC): 1322.94304  1322.94304  1322.94304    90.00000    90.00000    90.00000  Step:        3700  Bead:      13 positions{angstrom}  cell{angstrom}
       E -6.16868e+01 -1.14159e+01 -1.64251e+01
       E -2.43876e+01 -3.39442e+01  1.87900e+01
       E -1.51916e+01  3.09387e+01 -4.74690e+00
3
# CELL(abcABC): 1322.94304  1322.94304  1322.94304    90.00000    90.00000    90.00000  Step:        3800  Bead:      13 positions{angstrom}  cell{angstrom}
       E -7.81207e+01 -4.05147e+01 -2.35480e+01
       E -9.20952e+00 -3.88108e+01 -2.12979e+01
       E -4.28786e+01  3.42308e+01 -9.25586e+00
3
# CELL(abcABC): 1322.94304  1322.94304  1322.94304    90.00000    90.00000    90.00000  Step:        3900  Bead:      13 positions{angstrom}  cell{angstrom}
       E -1.05713e+02 -1.14450e+01 -3.17970e+01
       E -1.90612e+01 -5.94438e+00 -1.13865e+01
       E -2.64643e+01  3.66690e+01 -1.15737e+01
3
# CELL(abcABC): 1322.94304  1322.94304  1322.94304    90.00000    90.00000    90.00000  Step:        4000  Bead:      13 positions{angstrom}  cell{angstrom}
       E -9.76024e+01  5.87209e+01 -7.30416e+01
       E -3.45009e+01  2.76206e+00  2.37365e+01
       E -2.21483e+01  3.04341e+01  2.27119e+01
3
# CELL(abcABC): 1322.94304  1322.94304  1322.94304    90.00000    90.00000    90.00000  Step:        4100  Bead:      13 positions{angstrom}  cell{angstrom}
       E -9.12013e+01  5.44279e+01 -6.89645e+01
       E -3.76202e+01  3.19379e+01  4.50500e+01
       E -2.58197e+00 -5.83637e+00  4.61821e+01
3
# CELL(abcABC): 1322.94304  1322.94304  1322.94304    90.00000    90.00000    90.00000  Step:        4200  Bead:      13 positions{angstrom}  cell{angstrom}
       E -6.32774e+01  6.15918e+01 -6.25682e+01
       E -3.91164e+01  3.15996e+01  5.97011e+01
       E  3.02972e+01  9.92397e+00  5.48030e+01
3
# CELL(abcABC): 1322.94304  1322.94304  1322.94304    90.00000    90.00000    90.00000  Step:        4300  Bead:      13 positions{angstrom}  cell{angstrom}
       E -9.37624e+01  3.44225e+01 -7.57200e+01
       E -3.97947e+01  1.94530e+01  7.14923e+01
       E  2.03323e+01  3.13108e+01  4.99624e+01
3
# CELL(abcABC): 1322.94304  1322.94304  1322.94304    90.00000    90.00000    90.00000  Step:        4400  Bead:      13 positions{angstrom}  cell{angstrom}
       E -7.29104e+01  1.19154e+01 -6.06517e+01
       E -3.76596e+01  6.65025e+01  1.93859e+01
       E -2.99453e+01 -2.24458e+00 -2.14516e+01
3
# CELL(abcABC): 1322.94304  1322.94304  1322.94304    90.00000    90.00000    90.00000  Step:        4500  Bead:      13 positions{angstrom}  cell{angstrom}
       E -6.18194e+01  1.57851e+01 -8.13639e+01
       E -7.28236e+01  7.15791e+01  1.40573e+01
       E  4.01628e+00 -3.28334e+01  4.95616e+01
3
# CELL(abcABC): 1322.94304  1322.94304  1322.94304    90.00000    90.00000    90.00000  Step:        4600  Bead:      13 positions{angstrom}  cell{angstrom}
       E  2.20371e+00  4.99493e+00 -8.26542e+01
       E -6.93102e+01  5.49457e+01 -6.09270e+00
       E  1.83469e+01 -4.18524e+01  2.32539e+01
3
# CELL(abcABC): 1322.94304  1322.94304  1322.94304    90.00000    90.00000    90.00000  Step:        4700  Bead:      13 positions{angstrom}  cell{angstrom}
       E  2.21426e+01  3.41846e+01 -6.67087e+01
       E -6.73509e+01  3.32316e+01 -8.87887e+00
       E  5.85846e+01 -2.62888e+01  1.88432e+01
3
# CELL(abcABC): 1322.94304  1322.94304  1322.94304    90.00000    90.00000    90.00000  Step:        4800  Bead:      13 positions{angstrom}  cell{angstrom}
       E  5.95416e+00  4.28856e+01 -3.14912e+01
       E -5.05082e+01  4.44408e+01 -2.21793e+01
       E  6.37500e+01 -2.33440e+00 -1.48965e+01
3
# CELL(abcABC): 1322.94304  1322.94304  1322.94304    90.00000    90.00000    90.00000  Step:        4900  Bead:      13 positions{angstrom}  cell{angstrom}
       E  9.41170e+00  3.14208e+01  1.11850e+01
       E -2.48149e+01 -1.53469e+01 -2.15509e+01
       E  2.79568e+01 -1.10651e+00 -4.51609e+00
3
# CELL(abcABC): 1322.94304  1322.94304  1322.94304    90.00000    90.00000    90.00000  Step:        5000  Bead:      13 positions{angstrom}  cell{angstrom}
       E  4.66932e+00  5.48548e-01 -1.87022e+01
       E -3.45204e+01 -6.15768e+00 -2.78789e+01
       E  1.71112e+01 -3.27466e+01 -1.86745e+01
3
# CELL(abcABC): 1322.94304  1322.94304  1322.94304    90.00000    90.00000    90.00000  Step:        5100  Bead:      13 positions{angstrom}  cell{angstrom}
       E -1.55614e+01  4.58492e+00 -1.45012e+01
       E -2.50907e+01  1.02321e+01 -1.80258e+01
       E -1.22232e+00 -3.15525e+01 -1.69598e+01
3
# CELL(abcABC): 1322.94304  1322.94304  1322.94304    90.00000    90.00000    90.00000  Step:        5200  Bead:      13 positions{angstrom}  cell{angstrom}
       E  2.30403e+01  2.99504e+01  4.38369e+01
       E -1.32274e+01  3.07643e+01 -2.55786e+01
       E -8.45511e+00  3.96056e+00  5.42130e+00
3
# CELL(abcABC): 1322.94304  1322.94304  1322.94304    90.00000    90.00000    90.00000  Step:        5300  Bead:      13 positions{angstrom}  cell{angstrom}
       E -7.71627e-01  3.63125e+01  4.91955e+01
       E -3.68678e+01  1.18176e+01 -3.55425e+01
       E -2.23394e+00  2.86288e+01  2.63832e+01
3
# CELL(abcABC): 1322.94304  1322.94304  1322.94304    90.00000    90.00000    90.00000  Step:        5400  Bead:      13 positions{angstrom}  cell{angstrom}
       E  1.58397e+01  2.12392e+01  5.09044e+01
       E -1.27492e+01  6.50797e+00 -3.32494e+01
       E -1.28326e+01  3.35284e+01  5.19692e+01
3
# CELL(abcABC): 1322.94304  1322.94304  1322.94304    90.00000    90.00000    90.00000  Step:        5500  Bead:      13 positions{angstrom}  cell{angstrom}
       E  2.82534e+01  1.85391e+01  4.99842e+01
       E -3.43950e+01 -1.24263e+01  2.72864e+00
       E -2.14583e+01  3.22969e+00  4.43970e+01
3
# CELL(abcABC): 1322.94304  1322.94304  1322.94304    90.00000    90.00000    90.00000  Step:        5600  Bead:      13 positions{angstrom}  cell{angstrom}
       E -2.09386e+01  4.82575e+00  1.10858e+01
       E -2.69970e+01  1.86653e+00 -2.18665e+01
       E -4.18980e+01  8.35722e+00  2.29944e+01
3
# CELL(abcABC): 1322.94304  1322.94304  1322.94304    90.00000    90.00000    90.00000  Step:        5700  Bead:      13 positions{angstrom}  cell{angstrom}
       E  2.41761e+01 -2.44395e+00  7.22102e+00
       E -4.00342e+01  5.47856e+01 -1.07782e+01
       E -4.29264e+01  1.93113e+01  2.80409e+01
3
# CELL(abcABC): 1322.94304  1322.94304  1322.94304    90.00000    90.00000    90.00000  Step:        5800  Bead:      13 positions{angstrom}  cell{angstrom}
       E  1.72425e+00 -1.05699e+00 -2.82038e+01
       E -6.40899e+01  3.85840e+01 -1.46110e+01
       E -2.66478e+01  3.27502e+01  1.89952e+01
3
# CELL(abcABC): 1322.94304  1322.94304  1322.94304    90.00000    90.00000    90.00000  Step:        5900  Bead:      13 positions{angstrom}  cell{angstrom}
       E  3.31140e+01  6.54170e+00 -1.34080e+01
       E -4.89812e+00  6.48314e+00  7.24300e+00
       E  4.46226e+00 -1.50109e+01  1.90028e-01
3
# CELL(abcABC): 1322.94304  1322.94304  1322.94304    90.00000    90.00000    90.00000  Step:        6000  Bead:      13 positions{angstrom}  cell{angstrom}
       E  2.61118e+01  5.72887e+00 -5.01657e+00
       E -1.77904e+00 -1.19982e+01  2.19955e+01
       E -1.65644e+01 -6.13090e-01  3.24357e+00
3
# CELL(abcABC): 1322.94304  1322.94304  1322.94304    90.00000    90.00000    90.00000  Step:        6100  Bead:      13 positions{angstrom}  cell{angstrom}
       E -6.16004e+00 -5.65854e+01 -4.56454e+01
       E  1.44430e+01  2.39591e+01  3.26860e+01
       E -4.11439e+01  1.10918e+01  8.53257e+00
3
# CELL(abcABC): 1322.94304  1322.94304  1322.94304    90.00000    90.00000    90.00000  Step:        6200  Bead:      13 positions{angstrom}  cell{angstrom}
       E  1.96832e+01  3.10467e+00 -6.58097e+01
       E  6.71401e+01  3.82228e+01  6.89649e+00
       E  3.31754e+00  7.39550e+00  6.15701e+00
3
# CELL(abcABC): 1322.94304  1322.94304  1322.94304    90.00000    90.00000    90.00000  Step:        6300  Bead:      13 positions{angstrom}  cell{angstrom}
       E  1.06381e+01 -4.74168e+01 -1.05843e+02
       E  1.00598e+02 -2.75808e+00 -1.52924e+01
       E -5.75225e+00 -1.04275e+01 -2.28437e+01
3
# CELL(abcABC): 1322.94304  1322.94304  1322.94304    90.00000    90.00000    90.00000  Step:        6400  Bead:      13 positions{angstrom}  cell{angstrom}
       E  1.71146e+01 -7.71389e+01 -9.88755e+01
       E  6.60177e+01  1.11242e+01 -1.88248e+01
       E  7.03035e+00  9.62660e+00  3.53069e-01
3
# CELL(abcABC): 1322.94304  1322.94304  1322.94304    90.00000    90.00000    90.00000  Step:        6500  Bead:      13 positions{angstrom}  cell{angstrom}
       E -1.27760e+01 -7.31911e+01 -1.00353e+02
       E  1.72871e+01 -1.35267e+01 -5.76776e-02
       E  5.60855e+00 -2.42052e+01 -2.79651e+00
3
# CELL(abcABC): 1322.94304  1322.94304  1322.94304    90.00000    90.00000    90.00000  Step:        6600  Bead:      13 positions{angstrom}  cell{angstrom}
       E -2.30891e+01 -5.86625e+01 -1.06944e+02
       E  1.77720e+01 -2.85123e+01 -2.92829e+01
       E  2.03237e+01 -4.92634e+01  3.07291e+01
3
# CELL(abcABC): 1322.94304  1322.94304  1322.94304    90.00000    90.00000    90.00000  Step:        6700  Bead:      13 positions{angstrom}  cell{angstrom}
       E -1.88343e+01 -6.85371e+01 -7.25859e+01
       E  1.19122e+01 -1.15251e+00  3.35899e+00
       E -2.43208e+00 -1.04228e-01 -8.85979e+00
3
# CELL(abcABC): 1322.94304  1322.94304  1322.94304    90.00000    90.00000    90.00000  Step:        6800  Bead:      13 positions{angstrom}  cell{angstrom}
       E -8.76458e+00 -1.00796e+02 -5.95167e+01
       E  5.39359e+01 -1.80895e+01 -4.18264e+00
       E  2.91082e+01  2.54689e+01  3.90730e+00
3
# CELL(abcABC): 1322.94304  1322.94304  1322.94304    90.00000    90.00000    90.00000  Step:        6900  Bead:      13 positions{angstrom}  cell{angstrom}
       E  2.96293e+00 -5.66864e+01 -6.57525e+01
       E  2.35144e+01 -2.08751e+01 -1.12002e+01
       E -2.69112e+01  4.59528e+01 -4.83762e+00
3
# CELL(abcABC): 1322.94304  1322.94304  1322.94304    90.00000    90.00000    90.00000  Step:        7000  Bead:      13 positions{angstrom}  cell{angstrom}
       E  1.21590e+01 -6.73497e+01 -3.98945e+01
       E  4.11993e+00 -2.94429e+01  3.77169e+01
       E -1.23163e+01  1.52156e+01  2.57815e+01
3
# CELL(abcABC): 1322.94304  1322.94304  1322.94304    90.00000    90.00000    90.00000  Step:        7100  Bead:      13 positions{angstrom}  cell{angstrom}
       E  2.18815e+01 -6.49008e+01 -2.90761e+01
       E -3.20501e+01 -6.59918e+00  2.61219e+01
       E  3.19185e+01  6.46917e+01  5.06110e+00
3
# CELL(abcABC): 1322.94304  1322.94304  1322.94304    90.00000    90.00000    90.00000  Step:        7200  Bead:      13 positions{angstrom}  cell{angstrom}
       E  4.72017e+01 -4.02692e+01 -2.00471e+01
       E -4.33987e+01  1.13119e+01  2.78479e+01
       E  3.97625e+01  3.28468e+01 -1.84999e+00
3
# CELL(abcABC): 1322.94304  1322.94304  1322.94304    90.00000    90.00000    90.00000  Step:        7300  Bead:      13 positions{angstrom}  cell{angstrom}
       E  9.69296e+00 -3.94280e+01 -2.18008e+01
       E -1.85708e+01  5.01521e+01  3.34566e+01
       E  3.48492e+01 -2.49098e+00 -1.55203e+01
3
# CELL(abcABC): 1322.94304  1322.94304  1322.94304    90.00000    90.00000    90.00000  Step:        7400  Bead:      13 positions{angstrom}  cell{angstrom}
       E  2.45396e+01 -4.12098e+01 -8.42733e+01
       E -5.20444e+01  4.25384e+01  5.61547e+00
       E  5.20764e+01  3.63494e+01 -3.88133e+01
3
# CELL(abcABC): 1322.94304  1322.94304  1322.94304    90.00000    90.00000    90.00000  Step:        7500  Bead:      13 positions{angstrom}  cell{angstrom}
       E  1.06885e+01 -6.73993e+01 -4.44486e+01
       E -3.06907e+01  5.47912e+00 -4.26755e+00
       E  5.45694e+01  2.00776e+01  5.00711e-01
3
# CELL(abcABC): 1322.94304  1322.94304  1322.94304    90.00000    90.00000    90.00000  Step:        7600  Bead:      13 positions{angstrom}  cell{angstrom}
       E  3.28343e+01 -5.81339e+01 -2.23294e+01
       E -6.14650e+00 -2.81954e+01 -2.20205e+01
       E  3.59837e+01  3.42185e+01  1.07000e+00
3
# CELL(abcABC): 1322.94304  1322.94304  1322.94304    90.00000    90.00000    90.00000  Step:        7700  Bead:      13 positions{angstrom}  cell{angstrom}
       E  2.04302e+01 -6.72365e+01 -3.56584e+00
       E -2.06975e+01 -4.80611e+01 -5.97542e+01
       E  3.47890e+01  4.62086e+01 -3.19149e+01
3
# CELL(abcABC): 1322.94304  1322.94304  1322.94304    90.00000    90.00000    90.00000  Step:        7800  Bead:      13 positions{angstrom}  cell{angstrom}
       E  8.32046e+00 -5.72259e+01 -4.33147e+01
       E -3.46099e+00 -5.04705e+01 -5.00200e+01
       E  3.37590e+01  2.26763e+01 -5.21734e+01
3
# CELL(abcABC): 1322.94304  1322.94304  1322.94304    90.00000    90.00000    90.00000  Step:        7900  Bead:      13 positions{angstrom}  cell{angstrom}
       E  1.98789e+01 -3.65847e+01 -3.27689e+01
       E  6.41107e+00 -2.54201e+01 -2.02879e+01
       E  8.27519e+00  3.28679e+01 -4.25130e+01
3
# CELL(abcABC): 1322.94304  1322.94304  1322.94304    90.00000    90.00000    90.00000  Step:        8000  Bead:      13 positions{angstrom}  cell{angstrom}
       E  3.51948e+01 -3.35367e+01 -3.81774e+01
       E -1.10476e+01  6.11222e+00 -2.27117e+01
       E  2.61032e+01  1.73876e+01 -4.28819e+01
3
# CELL(abcABC): 1322.94304  1322.94304  1322.94304    90.00000    90.00000    90.00000  Step:        8100  Bead:      13 positions{angstrom}  cell{angstrom}
       E  1.97985e+01  1.35555e+01 -5.61349e+01
       E  5.87212e+00  1.41150e+01 -1.92677e+00
       E  5.31570e+00  1.75361e+01 -1.06241e+01
3
# CELL(abcABC): 1322.94304  1322.94304  1322.94304    90.00000    90.00000    90.00000  Step:        8200  Bead:      13 positions{angstrom}  cell{angstrom}
       E  3.33812e+01  5.78048e+01 -4.91664e+01
       E -2.73458e+01  6.20940e+00 -2.56939e+01
       E -1.90199e+00  5.25996e+00  1.60335e+01
3
# CELL(abcABC): 1322.94304  1322.94304  1322.94304    90.00000    90.00000    90.00000  Step:        8300  Bead:      13 positions{angstrom}  cell{angstrom}
       E  3.46862e+01  4.01326e+01 -4.24301e+01
       E -1.63071e+01  4.91781e+01  9.28719e+00
       E  1.48831e+01 -4.51216e+01  6.64915e+01
3
# CELL(abcABC): 1322.94304  1322.94304  1322.94304    90.00000    90.00000    90.00000  Step:        8400  Bead:      13 positions{angstrom}  cell{angstrom}
       E -1.02145e+01 -8.03375e-01 -2.20118e+01
       E  2.49870e+00  5.13576e+01 -4.55472e+01
       E  2.18835e+01 -3.36795e+01  6.24304e+01
3
# CELL(abcABC): 1322.94304  1322.94304  1322.94304    90.00000    90.00000    90.00000  Step:        8500  Bead:      13 positions{angstrom}  cell{angstrom}
       E -1.66192e+01 -9.17806e+00 -1.61689e+01
       E  3.68936e+01  3.39901e+01 -2.54171e+01
       E  2.60704e+01 -3.22670e+01  3.40414e+01
3
# CELL(abcABC): 1322.94304  1322.94304  1322.94304    90.00000    90.00000    90.00000  Step:        8600  Bead:      13 positions{angstrom}  cell{angstrom}
       E -2.94055e+01 -1.67451e+01 -2.63828e+00
       E -3.26645e+00  1.41909e+01 -5.07107e+01
       E  2.18612e+00 -1.83408e+01  2.03596e+01
3
# CELL(abcABC): 1322.94304  1322.94304  1322.94304    90.00000    90.00000    90.00000  Step:        8700  Bead:      13 positions{angstrom}  cell{angstrom}
       E -3.75995e+01  5.06973e+00 -3.15877e+01
       E -1.01335e+01  2.99583e+01 -4.57883e+01
       E  7.14263e+00 -3.84348e+01  6.33195e+01
3
# CELL(abcABC): 1322.94304  1322.94304  1322.94304    90.00000    90.00000    90.00000  Step:        8800  Bead:      13 positions{angstrom}  cell{angstrom}
       E -4.65833e+01  2.27248e+01  2.82189e+01
       E  1.23806e+01 -4.02985e+00  6.98681e+00
       E  2.06199e+01 -7.39511e+01  3.68670e+01
3
# CELL(abcABC): 1322.94304  1322.94304  1322.94304    90.00000    90.00000    90.00000  Step:        8900  Bead:      13 positions{angstrom}  cell{angstrom}
       E -3.08399e+01  4.53321e+01  3.31648e+01
       E -1.09823e+00  1.68065e+00  2.20796e+01
       E  1.39642e+01 -5.82266e+01  5.01407e+01
3
# CELL(abcABC): 1322.94304  1322.94304  1322.94304    90.00000    90.00000    90.00000  Step:        9000  Bead:      13 positions{angstrom}  cell{angstrom}
       E -2.81885e+01  3.41147e+01  5.67999e+00
       E -2.18800e+00 -1.77645e+01  5.42062e+01
       E  5.39923e+01 -2.14739e+01  2.31012e+01
3
# CELL(abcABC): 1322.94304  1322.94304  1322.94304    90.00000    90.00000    90.00000  Step:        9100  Bead:      13 positions{angstrom}  cell{angstrom}
       E  7.11000e+00  3.69565e+01  3.08170e+01
       E -4.27412e+01  1.21863e+01  8.08917e+01
       E  3.07412e+01 -1.25779e+01  4.42186e+01
3
# CELL(abcABC): 1322.94304  1322.94304  1322.94304    90.00000    90.00000    90.00000  Step:        9200  Bead:      13 positions{angstrom}  cell{angstrom}
       E  3.33545e+01  2.91198e+01  1.39680e+01
       E -3.53263e+01  1.67995e+00  4.91087e+01
       E  3.19196e+01 -5.69618e+01 -8.89129e+00
3
# CELL(abcABC): 1322.94304  1322.94304  1322.94304    90.00000    90.00000    90.00000  Step:        9300  Bead:      13 positions{angstrom}  cell{angstrom}
       E  1.02843e+01  2.12585e+01 -7.23279e+00
       E -3.77023e+01 -6.54559e+00  6.74645e+00
       E  4.31178e+00 -5.38552e+01  4.71333e+00
3
# CELL(abcABC): 1322.94304  1322.94304  1322.94304    90.00000    90.00000    90.00000  Step:        9400  Bead:      13 positions{angstrom}  cell{angstrom}
       E  3.48165e+01  8.74908e+01 -2.65030e+01
       E -2.73531e+01 -4.38184e+01  1.26835e+01
       E  4.95689e+01 -5.23724e+01 -2.40838e+01
3
# CELL(abcABC): 1322.94304  1322.94304  1322.94304    90.00000    90.00000    90.00000  Step:        9500  Bead:      13 positions{angstrom}  cell{angstrom}
       E -6.53035e+00  6.13888e+01 -5.42388e+01
       E -7.18645e+00 -5.52027e+01  2.44397e+01
       E  2.62047e+01 -9.44439e+00  1.19600e+01
3
# CELL(abcABC): 1322.94304  1322.94304  1322.94304    90.00000    90.00000    90.00000  Step:        9600  Bead:      13 positions{angstrom}  cell{angstrom}
       E  1.85839e+01  3.76607e+01 -2.92975e+01
       E  3.93502e+01 -3.59740e+01  3.14710e+01
       E  3.24549e+01 -1.81848e+01  1.58811e+01
3
# CELL(abcABC): 1322.94304  1322.94304  1322.94304    90.00000    90.00000    90.00000  Step:        9700  Bead:      13 positions{angstrom}  cell{angstrom}
       E  3.67271e+01 -3.92859e+01 -2.79676e+01
       E  6.81235e+01 -6.73717e+01  9.81777e+00
       E  3.08515e+01 -5.99870e+00  1.57360e+01
3
# CELL(abcABC): 1322.94304  1322.94304  1322.94304    90.00000    90.00000    90.00000  Step:        9800  Bead:      13 positions{angstrom}  cell{angstrom}
       E -5.76987e-01 -6.32778e+01 -5.51013e+01
       E  5.34898e+01 -7.19911e+01 -1.56471e+01
       E  2.35090e+01 -1.01846e+01  1.45530e+01
3