3
# CELL(abcABC): 1322.94304  1322.94304  1322.94304    90.00000    90.00000    90.00000  Step:           0  Bead:      26 positions{angstrom}  cell{angstrom}
       E  0.00000e+00  0.00000e+00  0.00000e+00
       E  0.00000e+00  0.00000e+00  0.00000e+00
       E  0.00000e+00  0.00000e+00  0.00000e+00
3
# CELL(abcABC): 1322.94304  1322.94304  1322.94304    90.00000    90.00000    90.00000  Step:         100  Bead:      26 positions{angstrom}  cell{angstrom}
       E  2.57928e+01 -8.96588e+00  1.17169e+01
       E -1.43749e-01 -5.77141e+01  1.57135e+01
       E -1.02378e+00  9.49683e-01 -1.61755e+01
3
# CELL(abcABC): 1322.94304  1322.94304  1322.94304    90.00000    90.00000    90.00000  Step:         200  Bead:      26 positions{angstrom}  cell{angstrom}
       E -2.49828e+01 -1.71368e+01  4.11235e+01
       E -9.98107e+00 -3.95358e+01  2.69976e+01
       E  3.29439e+01  1.83185e+01 -1.78044e+00
3
# CELL(abcABC): 1322.94304  1322.94304  1322.94304    90.00000    90.00000    90.00000  Step:         300  Bead:      26 positions{angstrom}  cell{angstrom}
       E  7.11840e+00 -2.85673e+00  1.86407e+01
       E  2.36310e+00 -3.55621e+01 -1.25839e+01
       E  2.70454e+01  1.86935e+01  9.85079e+00
3
# CELL(abcABC): 1322.94304  1322.94304  1322.94304    90.00000    90.00000    90.00000  Step:         400  Bead:      26 positions{angstrom}  cell{angstrom}
       E  2.32978e+01  1.25464e+01 -1.83759e+01
       E -4.13312e+00 -3.42305e+01 -3.12024e+00
       E  2.52690e+01  2.08614e+01 -1.78523e+01
3
# CELL(abcABC): 1322.94304  1322.94304  1322.94304    90.00000    90.00000    90.00000  Step:         500  Bead:      26 positions{angstrom}  cell{angstrom}
       E  4.32990e+01 -2.42292e+01 -4.42844e+01
       E  9.94869e+00 -6.89562e+00 -6.73924e-01
       E  2.10904e+01  4.34339e-01  3.06523e+01
3
# CELL(abcABC): 1322.94304  1322.94304  1322.94304    90.00000    90.00000    90.00000  Step:         600  Bead:      26 positions{angstrom}  cell{angstrom}
       E  4.89440e+01 -1.94992e+01 -2.12576e+01
       E -2.58989e+00 -6.84005e+00  3.28345e+01
       E  1.29043e+01  3.30454e+01  6.00889e+01
3
# CELL(abcABC): 1322.94304  1322.94304  1322.94304    90.00000    90.00000    90.00000  Step:         700  Bead:      26 positions{angstrom}  cell{angstrom}
       E  2.87119e+01 -5.48793e+00 -2.35502e+01
       E -8.31777e+00 -2.48044e+01  3.70792e+01
       E -3.59372e+01  2.71138e+01  7.41358e+01
3
# CELL(abcABC): 1322.94304  1322.94304  1322.94304    90.00000    90.00000    90.00000  Step:         800  Bead:      26 positions{angstrom}  cell{angstrom}
       E  5.21326e+01  5.98314e+00 -1.80610e+01
       E  3.16653e+01 -9.41726e+00  4.05300e+01
       E -3.98144e+01  2.95078e+01  7.06153e+01
3
# CELL(abcABC): 1322.94304  1322.94304  1322.94304    90.00000    90.00000    90.00000  Step:         900  Bead:      26 positions{angstrom}  cell{angstrom}
       E  2.03992e+01  7.40419e+00 -2.92690e+01
       E -2.34914e+01 -4.02425e+00  1.02211e+01
       E -3.71171e+01  1.11307e+01  1.18765e+02
3
# CELL(abcABC): 1322.94304  1322.94304  1322.94304    90.00000    90.00000    90.00000  Step:        1000  Bead:      26 positions{angstrom}  cell{angstrom}
       E  1.51340e+01  4.84286e+01 -2.18069e+01
       E -1.92076e+00  1.27949e+01 -1.32680e+01
       E -1.45524e+01  1.53520e+01  8.48959e+01
3
# CELL(abcABC): 1322.94304  1322.94304  1322.94304    90.00000    90.00000    90.00000  Step:        1100  Bead:      26 positions{angstrom}  cell{angstrom}
       E  9.17805e+00  3.09321e-01 -2.72045e+01
       E  8.83901e+00  1.49770e+01 -3.42073e+01
       E  7.60366e+00  1.34853e+01  3.97780e+01
3
# CELL(abcABC): 1322.94304  1322.94304  1322.94304    90.00000    90.00000    90.00000  Step:        1200  Bead:      26 positions{angstrom}  cell{angstrom}
       E  2.37706e-01 -1.55172e+01 -2.40584e+01
       E  2.70565e+01  5.54387e+00 -4.42166e+01
       E  1.83390e+01  8.82506e+01  3.70877e+01
3
# CELL(abcABC): 1322.94304  1322.94304  1322.94304    90.00000    90.00000    90.00000  Step:        1300  Bead:      26 positions{angstrom}  cell{angstrom}
       E -5.62717e+00  2.26722e+01 -3.76192e+01
       E -6.06370e+00  2.54066e+00 -8.55228e+01
       E -4.22585e+00  5.20088e+01  1.28919e+00
3
# CELL(abcABC): 1322.94304  1322.94304  1322.94304    90.00000    90.00000    90.00000  Step:        1400  Bead:      26 positions{angstrom}  cell{angstrom}
       E -3.14089e+00  6.81410e+01 -5.52041e+01
       E -8.56222e+00 -2.40710e+01 -4.71025e+01
       E  3.55903e+00  2.97274e+01  2.53538e+01
3
# CELL(abcABC): 1322.94304  1322.94304  1322.94304    90.00000    90.00000    90.00000  Step:        1500  Bead:      26 positions{angstrom}  cell{angstrom}
       E -3.09639e+01  6.07199e+01 -8.11629e+01
       E -3.34634e+01 -1.76231e+00 -5.69947e+01
       E  2.94989e+00  1.86457e+01  4.30953e+01
3
# CELL(abcABC): 1322.94304  1322.94304  1322.94304    90.00000    90.00000    90.00000  Step:        1600  Bead:      26 positions{angstrom}  cell{angstrom}
       E -1.11674e+01  3.62088e+01 -8.89168e+01
       E -2.70948e+01  7.85733e+00  1.95051e+01
       E -2.54172e+01  4.31713e+01  4.31609e+00
3
# CELL(abcABC): 1322.94304  1322.94304  1322.94304    90.00000    90.00000    90.00000  Step:        1700  Bead:      26 positions{angstrom}  cell{angstrom}
       E -5.48552e+01  3.73211e+01 -7.10532e+00
       E -1.79074e+01  3.50465e+01  3.36779e+01
       E -3.56122e+01  3.68249e+01  1.59216e+01
3
# CELL(abcABC): 1322.94304  1322.94304  1322.94304    90.00000    90.00000    90.00000  Step:        1800  Bead:      26 positions{angstrom}  cell{angstrom}
       E -1.27632e+01  3.95447e+01  2.93876e+01
       E -6.49977e+01  6.26922e+00  4.47787e+00
       E -4.21834e+01  4.08279e+01  1.27917e+00
3
# CELL(abcABC): 1322.94304  1322.94304  1322.94304    90.00000    90.00000    90.00000  Step:        1900  Bead:      26 positions{angstrom}  cell{angstrom}
       E -1.50949e+01 -3.74227e+00  2.25800e+01
       E -3.20506e+01  2.88597e+01  1.11954e+01
       E -4.13398e+01  4.17675e+01  1.29007e+01
3
# CELL(abcABC): 1322.94304  1322.94304  1322.94304    90.00000    90.00000    90.00000  Step:        2000  Bead:      26 positions{angstrom}  cell{angstrom}
       E -2.37935e+01 -1.79503e+01  5.06664e+01
       E -2.76808e+01  2.55253e+01 -8.31686e+00
       E -9.42704e+01  5.23918e+01 -1.63115e+01
3
# CELL(abcABC): 1322.94304  1322.94304  1322.94304    90.00000    90.00000    90.00000  Step:        2100  Bead:      26 positions{angstrom}  cell{angstrom}
       E -1.10682e+00 -3.94183e+01  2.66065e+01
       E -2.68925e+01  4.07728e+00  2.65133e+01
       E -4.31378e+01  8.60834e+01 -1.29193e+01
3
# CELL(abcABC): 1322.94304  1322.94304  1322.94304    90.00000    90.00000    90.00000  Step:        2200  Bead:      26 positions{angstrom}  cell{angstrom}
       E -3.89539e+00 -6.12230e+01  2.50429e+01
       E -1.45373e+01  1.95637e+01  7.09283e+00
       E -2.76048e+01  3.79894e+01 -1.45408e+01
3
# CELL(abcABC): 1322.94304  1322.94304  1322.94304    90.00000    90.00000    90.00000  Step:        2300  Bead:      26 positions{angstrom}  cell{angstrom}
       E -1.49670e+01 -7.30965e+01 -1.16374e+01
       E -1.90014e+01  1.42630e+01 -4.42850e+00
       E -5.89389e+01  3.56512e+01 -1.60367e+01
3
# CELL(abcABC): 1322.94304  1322.94304  1322.94304    90.00000    90.00000    90.00000  Step:        2400  Bead:      26 positions{angstrom}  cell{angstrom}
       E -2.89541e+01 -5.88728e+01 -8.92285e-01
       E -3.18556e+01 -2.03961e+01 -1.63150e+01
       E -2.84702e+01  8.25242e+00 -2.44051e+01
3
# CELL(abcABC): 1322.94304  1322.94304  1322.94304    90.00000    90.00000    90.00000  Step:        2500  Bead:      26 positions{angstrom}  cell{angstrom}
       E -3.80201e+01 -1.23213e+00  2.86336e+01
       E -2.66856e+01 -6.97443e+01 -4.77294e+01
       E  1.08724e+01 -4.93155e-01  4.15641e+01
3
# CELL(abcABC): 1322.94304  1322.94304  1322.94304    90.00000    90.00000    90.00000  Step:        2600  Bead:      26 positions{angstrom}  cell{angstrom}
       E -4.78912e+01 -1.90771e+01  4.31399e+01
       E -5.28769e+01 -4.81489e+01 -1.39847e+01
       E  1.86458e+01 -2.21917e+01  8.02362e+01
3
# CELL(abcABC): 1322.94304  1322.94304  1322.94304    90.00000    90.00000    90.00000  Step:        2700  Bead:      26 positions{angstrom}  cell{angstrom}
       E -5.66479e+01 -6.09396e+01  6.95555e+01
       E -4.27935e+01 -4.86563e+01 -3.56211e+01
       E  9.65811e+00 -3.52668e+01  8.17520e+01
3
# CELL(abcABC): 1322.94304  1322.94304  1322.94304    90.00000    90.00000    90.00000  Step:        2800  Bead:      26 positions{angstrom}  cell{angstrom}
       E -4.61297e+01 -4.63708e+01  8.21337e+01
       E -5.85306e+01 -4.00607e+01 -9.62215e+00
       E  2.53083e+01 -1.60641e+01  3.69627e+01
3
# CELL(abcABC): 1322.94304  1322.94304  1322.94304    90.00000    90.00000    90.00000  Step:        2900  Bead:      26 positions{angstrom}  cell{angstrom}
       E -6.84239e+01 -7.90827e+01  7.22450e+01
       E -6.56102e+01 -3.05438e+01 -1.74133e-01
       E  4.54233e+01 -3.52889e+01  5.20554e+01
3
# CELL(abcABC): 1322.94304  1322.94304  1322.94304    90.00000    90.00000    90.00000  Step:        3000  Bead:      26 positions{angstrom}  cell{angstrom}
       E -8.74726e+01 -3.86226e+01  3.43776e+01
       E -7.61253e+01 -8.32027e+01  1.02188e+01
       E  3.89122e+01  7.79782e+00  2.22795e+01
3
# CELL(abcABC): 1322.94304  1322.94304  1322.94304    90.00000    90.00000    90.00000  Step:        3100  Bead:      26 positions{angstrom}  cell{angstrom}
       E -8.06530e+01 -4.58518e+01  2.36900e+01
       E -7.95504e+01 -6.60535e+01  8.22360e+01
       E  7.71389e+01  6.44730e+01  6.98916e+00
3
# CELL(abcABC): 1322.94304  1322.94304  1322.94304    90.00000    90.00000    90.00000  Step:        3200  Bead:      26 positions{angstrom}  cell{angstrom}
       E -8.40267e+01 -5.50741e+01  4.87168e+01
       E -5.72737e+01 -3.57147e+01  6.95048e+01
       E  4.94585e+01  5.67885e+01  1.19685e+00
3
# CELL(abcABC): 1322.94304  1322.94304  1322.94304    90.00000    90.00000    90.00000  Step:        3300  Bead:      26 positions{angstrom}  cell{angstrom}
       E -8.11306e+01  1.69359e+01  4.90338e+01
       E -8.55516e+01  7.46855e+00  6.44471e+01
       E  7.97169e+01  7.53818e+01  5.90192e-01
3
# CELL(abcABC): 1322.94304  1322.94304  1322.94304    90.00000    90.00000    90.00000  Step:        3400  Bead:      26 positions{angstrom}  cell{angstrom}
       E -1.12464e+02  1.41564e+01  1.04989e+02
       E -4.56032e+01 -2.60271e+01  2.02851e+01
       E  3.08171e+01  8.83192e+01  5.22657e+01
3
# CELL(abcABC): 1322.94304  1322.94304  1322.94304    90.00000    90.00000    90.00000  Step:        3500  Bead:      26 positions{angstrom}  cell{angstrom}
       E -1.09439e+02  2.24349e+00  9.43111e+01
       E -4.75102e+01 -4.57553e+01  3.34550e+01
       E  2.77824e+01  6.03106e+01  2.66847e+01
3
# CELL(abcABC): 1322.94304  1322.94304  1322.94304    90.00000    90.00000    90.00000  Step:        3600  Bead:      26 positions{angstrom}  cell{angstrom}
       E -1.11333e+02 -5.25425e+01  2.64134e+01
       E -7.14496e+00 -2.03267e+01  7.27613e+01
       E -5.72911e+01  2.89945e+01  1.36205e+01
3
# CELL(abcABC): 1322.94304  1322.94304  1322.94304    90.00000    90.00000    90.00000  Step:        3700  Bead:      26 positions{angstrom}  cell{angstrom}
       E -1.03346e+02 -2.67741e+01  8.90306e+00
       E  7.27864e+00 -3.91780e+01  1.85002e+01
       E -6.36996e+01 -3.21184e+00  3.05926e+01
3
# CELL(abcABC): 1322.94304  1322.94304  1322.94304    90.00000    90.00000    90.00000  Step:        3800  Bead:      26 positions{angstrom}  cell{angstrom}
       E -6.47322e+01 -4.39257e-01  3.65096e+00
       E -8.92591e-01 -5.44690e+01  6.56624e+00
       E -9.54346e+00 -3.48381e+01  1.74065e+01
3
# CELL(abcABC): 1322.94304  1322.94304  1322.94304    90.00000    90.00000    90.00000  Step:        3900  Bead:      26 positions{angstrom}  cell{angstrom}
       E -6.48867e+01 -1.46836e+00  2.18115e+01
       E -1.16852e+01 -3.79885e+01  3.48551e+01
       E  2.47860e+00 -2.68000e+01  1.90184e+01
3
# CELL(abcABC): 1322.94304  1322.94304  1322.94304    90.00000    90.00000    90.00000  Step:        4000  Bead:      26 positions{angstrom}  cell{angstrom}
       E -8.56140e+01  2.28869e+01 -3.88376e+01
       E -4.26450e+01 -1.92114e+01 -2.42838e-01
       E -7.67318e+00 -2.19451e+01 -2.49189e+01
3
# CELL(abcABC): 1322.94304  1322.94304  1322.94304    90.00000    90.00000    90.00000  Step:        4100  Bead:      26 positions{angstrom}  cell{angstrom}
       E -8.04407e+01 -4.24692e+00 -6.80483e+01
       E -8.62488e+01  8.19776e+00  2.38074e+01
       E -1.54447e+01 -2.95792e+01  1.16722e+01
3
# CELL(abcABC): 1322.94304  1322.94304  1322.94304    90.00000    90.00000    90.00000  Step:        4200  Bead:      26 positions{angstrom}  cell{angstrom}
       E -1.07464e+02 -3.69559e+00 -1.05769e+02
       E -5.62613e+01  1.20435e+01 -3.30809e+01
       E  1.66446e+01 -1.05553e+01 -6.44519e+00
3
# CELL(abcABC): 1322.94304  1322.94304  1322.94304    90.00000    90.00000    90.00000  Step:        4300  Bead:      26 positions{angstrom}  cell{angstrom}
       E -6.20689e+01  2.63872e+01 -8.36664e+01
       E -3.45849e+01  6.03962e+01 -3.16651e+01
       E  1.72186e+01 -1.26278e+01  1.49806e+01
3
# CELL(abcABC): 1322.94304  1322.94304  1322.94304    90.00000    90.00000    90.00000  Step:        4400  Bead:      26 positions{angstrom}  cell{angstrom}
       E -3.71812e+01  2.65037e+01 -7.35103e+01
       E -5.90126e+01  3.29657e+01 -2.81222e+01
       E  3.66723e+01 -3.62648e+01  1.94019e+01
3
# CELL(abcABC): 1322.94304  1322.94304  1322.94304    90.00000    90.00000    90.00000  Step:        4500  Bead:      26 positions{angstrom}  cell{angstrom}
       E -5.95349e+01  5.68262e+00 -7.61033e+01
       E -6.19954e+01  4.12617e+01  1.58432e+01
       E  3.96888e+01 -5.89848e+01  1.88803e+01
3
# CELL(abcABC): 1322.94304  1322.94304  1322.94304    90.00000    90.00000    90.00000  Step:        4600  Bead:      26 positions{angstrom}  cell{angstrom}
       E -5.98787e+01  5.47073e+01 -7.72526e+01
       E -5.42219e+01  5.21659e+01  1.02504e+01
       E  6.71312e+00 -4.84377e+01  3.26387e+01
3
# CELL(abcABC): 1322.94304  1322.94304  1322.94304    90.00000    90.00000    90.00000  Step:        4700  Bead:      26 positions{angstrom}  cell{angstrom}
       E -3.65548e+01  6.01275e+01 -1.08482e+02
       E -6.40177e+01  3.18638e+01 -1.88256e+01
       E -2.22328e+01 -7.09469e+01  4.99272e+01
3
# CELL(abcABC): 1322.94304  1322.94304  1322.94304    90.00000    90.00000    90.00000  Step:        4800  Bead:      26 positions{angstrom}  cell{angstrom}
       E -3.18349e+01  5.98718e+01 -1.12519e+02
       E -3.86695e+01  5.74714e+00 -2.42373e+01
       E  2.62110e+00 -4.73105e+01  6.92998e+00
3
# CELL(abcABC): 1322.94304  1322.94304  1322.94304    90.00000    90.00000    90.00000  Step:        4900  Bead:      26 positions{angstrom}  cell{angstrom}
       E  6.56838e+00  6.55931e+01 -4.95773e+01
       E -5.29972e+01 -1.25251e+01 -4.76597e+01
       E  3.01302e+00 -6.09471e+01 -1.06312e+01
3
# CELL(abcABC): 1322.94304  1322.94304  1322.94304    90.00000    90.00000    90.00000  Step:        5000  Bead:      26 positions{angstrom}  cell{angstrom}
       E  9.21809e+01  5.03457e+01  2.32869e+00
       E -3.74772e+01 -1.48564e+01 -4.00593e+01
       E -7.80177e+00 -4.29986e+01 -1.39674e+01
3
# CELL(abcABC): 1322.94304  1322.94304  1322.94304    90.00000    90.00000    90.00000  Step:        5100  Bead:      26 positions{angstrom}  cell{angstrom}
       E  5.26971e+01  4.55917e+01  1.37040e+01
       E -3.10715e+01  1.41705e+01 -5.19507e+00
       E  1.93773e+01  2.11326e+01 -1.60556e+01
3
# CELL(abcABC): 1322.94304  1322.94304  1322.94304    90.00000    90.00000    90.00000  Step:        5200  Bead:      26 positions{angstrom}  cell{angstrom}
       E  3.16484e+01 -2.23718e+00  1.92840e+01
       E -2.79074e+01  1.36210e+01 -1.50584e+01
       E -8.16350e+00  1.14854e+00 -2.77224e+00
3
# CELL(abcABC): 1322.94304  1322.94304  1322.94304    90.00000    90.00000    90.00000  Step:        5300  Bead:      26 positions{angstrom}  cell{angstrom}
       E  2.39216e+01 -3.14352e+01 -2.60945e+01
       E -4.96795e+01  1.46849e+01 -9.11824e+00
       E -5.21284e+01  4.24716e+01  2.95931e+01
3
# CELL(abcABC): 1322.94304  1322.94304  1322.94304    90.00000    90.00000    90.00000  Step:        5400  Bead:      26 positions{angstrom}  cell{angstrom}
       E  3.55938e+01 -1.40467e+01 -1.37477e+01
       E -4.70797e+01  5.03389e+01 -9.27820e+00
       E -3.75294e+01  5.30955e+01  1.42268e+01
3
# CELL(abcABC): 1322.94304  1322.94304  1322.94304    90.00000    90.00000    90.00000  Step:        5500  Bead:      26 positions{angstrom}  cell{angstrom}
       E  2.80566e+01 -7.37669e+00 -3.07094e+00
       E -2.00497e+01  1.47359e+01 -7.14810e+00
       E -3.36195e+01  6.17875e+01  3.90137e+00
3
# CELL(abcABC): 1322.94304  1322.94304  1322.94304    90.00000    90.00000    90.00000  Step:        5600  Bead:      26 positions{angstrom}  cell{angstrom}
       E  3.15637e+01  1.75835e+01 -3.48434e+01
       E -8.51947e+00  9.18471e+00  2.48328e+01
       E -2.30847e+01  2.19426e+01  1.65785e+01
3
# CELL(abcABC): 1322.94304  1322.94304  1322.94304    90.00000    90.00000    90.00000  Step:        5700  Bead:      26 positions{angstrom}  cell{angstrom}
       E  2.54114e+01  4.37343e-01 -6.73614e+01
       E -7.53174e+00  4.13092e+00  5.01095e+00
       E -4.73886e+01  5.28411e+00  1.14838e+01
3
# CELL(abcABC): 1322.94304  1322.94304  1322.94304    90.00000    90.00000    90.00000  Step:        5800  Bead:      26 positions{angstrom}  cell{angstrom}
       E  4.02717e+01  1.85530e+01 -1.85103e+01
       E -1.14177e+01 -1.28292e+01 -4.21099e+00
       E -3.35331e+01 -4.32814e+01 -4.10910e+00
3
# CELL(abcABC): 1322.94304  1322.94304  1322.94304    90.00000    90.00000    90.00000  Step:        5900  Bead:      26 positions{angstrom}  cell{angstrom}
       E  1.01352e+01 -4.47269e+00  7.68470e+00
       E  8.44687e+00  9.23987e+00 -1.45067e+01
       E  1.85999e+00 -3.40650e+01  1.85407e+01
3
# CELL(abcABC): 1322.94304  1322.94304  1322.94304    90.00000    90.00000    90.00000  Step:        6000  Bead:      26 positions{angstrom}  cell{angstrom}
       E  1.14500e+01 -4.86659e+01 -2.27868e+00
       E  9.61421e+00  1.40719e+01 -6.57426e+01
       E -2.19862e+01 -4.87462e+01  2.18682e+01
3
# CELL(abcABC): 1322.94304  1322.94304  1322.94304    90.00000    90.00000    90.00000  Step:        6100  Bead:      26 positions{angstrom}  cell{angstrom}
       E  7.21917e-01 -5.24313e+01 -4.98768e+01
       E  6.68806e+01 -2.36942e+01 -5.04525e+01
       E  3.19044e+00 -4.82837e+00 -8.86786e+00
3
# CELL(abcABC): 1322.94304  1322.94304  1322.94304    90.00000    90.00000    90.00000  Step:        6200  Bead:      26 positions{angstrom}  cell{angstrom}
       E  1.39376e+01 -3.59708e+01 -7.76246e+01
       E  4.76167e+01  2.08982e+01  2.89268e+01
       E  6.88386e+00 -6.30953e+01  2.58349e+01
3
# CELL(abcABC): 1322.94304  1322.94304  1322.94304    90.00000    90.00000    90.00000  Step:        6300  Bead:      26 positions{angstrom}  cell{angstrom}
       E  3.08236e+01 -5.44152e+01 -1.00194e+02
       E  7.81831e+01 -2.41256e+01 -1.55088e+01
       E -5.63291e+00 -6.67895e+01  4.62477e+00
3
# CELL(abcABC): 1322.94304  1322.94304  1322.94304    90.00000    90.00000    90.00000  Step:        6400  Bead:      26 positions{angstrom}  cell{angstrom}
       E  8.04096e+01 -6.99943e+01 -1.07352e+02
       E  3.82811e+01 -2.63435e+01 -6.51734e+01
       E  1.32423e+01 -3.65139e+01  2.37996e+01
3
# CELL(abcABC): 1322.94304  1322.94304  1322.94304    90.00000    90.00000    90.00000  Step:        6500  Bead:      26 positions{angstrom}  cell{angstrom}
       E  6.03708e+01 -8.42433e+01 -1.23787e+02
       E  1.90530e+00 -4.76710e+00 -6.05741e+01
       E  1.61265e+01 -4.64148e+00 -3.37982e+00
3
# CELL(abcABC): 1322.94304  1322.94304  1322.94304    90.00000    90.00000    90.00000  Step:        6600  Bead:      26 positions{angstrom}  cell{angstrom}
       E  1.31822e+01 -9.17624e+01 -8.88256e+01
       E  3.65973e+01  1.71340e+01 -5.45597e+01
       E -2.31799e+01  9.54071e+00  9.74474e+00
3
# CELL(abcABC): 1322.94304  1322.94304  1322.94304    90.00000    90.00000    90.00000  Step:        6700  Bead:      26 positions{angstrom}  cell{angstrom}
       E  3.80430e+01 -1.02150e+02 -1.11581e+02
       E  6.46030e+01 -2.03935e+00 -1.85214e+01
       E -3.15567e+01 -1.91180e+01  2.46032e+01
3
# CELL(abcABC): 1322.94304  1322.94304  1322.94304    90.00000    90.00000    90.00000  Step:        6800  Bead:      26 positions{angstrom}  cell{angstrom}
       E  5.12903e+01 -1.14500e+02 -1.10042e+02
       E  2.71848e+01 -2.58133e+01 -1.88413e+01
       E -3.90777e+01 -4.96310e+01  2.58791e+01
3
# CELL(abcABC): 1322.94304  1322.94304  1322.94304    90.00000    90.00000    90.00000  Step:        6900  Bead:      26 positions{angstrom}  cell{angstrom}
       E  3.78949e+01 -1.00972e+02 -2.80160e+01
       E  4.24877e+01 -4.68950e+00 -2.43699e+01
       E  1.68996e+00 -2.58809e+01  7.47695e+00
3
# CELL(abcABC): 1322.94304  1322.94304  1322.94304    90.00000    90.00000    90.00000  Step:        7000  Bead:      26 positions{angstrom}  cell{angstrom}
       E  4.19141e+01 -3.79826e+01 -1.88447e+01
       E  2.63423e+01  2.95000e+01 -2.62396e+01
       E  1.94034e+01 -5.41039e+00 -3.01858e+01
3
# CELL(abcABC): 1322.94304  1322.94304  1322.94304    90.00000    90.00000    90.00000  Step:        7100  Bead:      26 positions{angstrom}  cell{angstrom}
       E  7.71278e-02 -4.19253e+01 -2.31262e+01
       E  2.50193e+01  5.13882e+01  9.25510e+00
       E  5.90130e+01 -1.58821e+01  3.52140e+00
3
# CELL(abcABC): 1322.94304  1322.94304  1322.94304    90.00000    90.00000    90.00000  Step:        7200  Bead:      26 positions{angstrom}  cell{angstrom}
       E -5.95647e+00 -2.08654e+01 -7.69446e+01
       E  4.86129e+00  1.31370e+01  1.87581e+01
       E  5.09623e+01  3.74935e+01 -3.97375e+01
3
# CELL(abcABC): 1322.94304  1322.94304  1322.94304    90.00000    90.00000    90.00000  Step:        7300  Bead:      26 positions{angstrom}  cell{angstrom}
       E  3.64440e+01 -1.09261e+01 -5.20938e+01
       E -5.86018e+01  7.25312e+00 -3.59902e+00
       E  5.33103e+01  4.83752e+01 -4.07199e+00
3
# CELL(abcABC): 1322.94304  1322.94304  1322.94304    90.00000    90.00000    90.00000  Step:        7400  Bead:      26 positions{angstrom}  cell{angstrom}
       E -5.46101e+00 -5.09293e+01 -2.03342e+01
       E -2.19344e+01  5.00162e+00 -1.27114e+01
       E  6.51864e+01  2.60495e+01 -3.37690e+00
3
# CELL(abcABC): 1322.94304  1322.94304  1322.94304    90.00000    90.00000    90.00000  Step:        7500  Bead:      26 positions{angstrom}  cell{angstrom}
       E -1.88699e+01 -4.49141e+01 -4.77007e+01
       E -1.08124e+01 -5.40229e+00 -9.15202e+00
       E  2.48255e+01  5.02359e+01 -2.49743e+00
3
# CELL(abcABC): 1322.94304  1322.94304  1322.94304    90.00000    90.00000    90.00000  Step:        7600  Bead:      26 positions{angstrom}  cell{angstrom}
       E -2.04340e+01 -8.45065e+01 -7.44272e+01
       E -6.66762e+01 -3.37779e+01  2.41896e+01
       E  4.16745e+01  3.65308e+01 -2.24554e+01
3
# CELL(abcABC): 1322.94304  1322.94304  1322.94304    90.00000    90.00000    90.00000  Step:        7700  Bead:      26 positions{angstrom}  cell{angstrom}
       E -1.80058e+01 -4.85022e+01 -5.14796e+01
       E -1.17892e+01 -4.06850e+01 -9.07261e+00
       E  6.52229e+01  8.63458e+00 -3.56779e+01
3
# CELL(abcABC): 1322.94304  1322.94304  1322.94304    90.00000    90.00000    90.00000  Step:        7800  Bead:      26 positions{angstrom}  cell{angstrom}
       E -1.70718e+01 -5.04074e+01 -3.81027e+01
       E  7.43698e-01 -3.57265e+01 -2.44931e+01
       E  5.91987e+01 -4.68523e-01 -5.30700e+00
3
# CELL(abcABC): 1322.94304  1322.94304  1322.94304    90.00000    90.00000    90.00000  Step:        7900  Bead:      26 positions{angstrom}  cell{angstrom}
       E  3.41859e+01 -3.21496e+01 -2.34722e+01
       E  3.34504e+01 -5.72206e+01 -4.64832e+01
       E  2.88277e+01 -1.14241e+01 -5.80525e+01
3
# CELL(abcABC): 1322.94304  1322.94304  1322.94304    90.00000    90.00000    90.00000  Step:        8000  Bead:      26 positions{angstrom}  cell{angstrom}
       E  1.89698e+01 -3.41207e+00 -2.41649e+01
       E  1.35322e+00 -1.31863e+01 -6.52967e+01
       E  4.08329e+01  1.90483e+01 -6.45731e+00
3
# CELL(abcABC): 1322.94304  1322.94304  1322.94304    90.00000    90.00000    90.00000  Step:        8100  Bead:      26 positions{angstrom}  cell{angstrom}
       E  2.63507e+01  5.05070e+01 -2.79946e+01
       E -5.04270e+01  2.86507e+00 -6.35202e+01
       E  1.59232e+01 -9.56047e+00  1.29162e+01
3
# CELL(abcABC): 1322.94304  1322.94304  1322.94304    90.00000    90.00000    90.00000  Step:        8200  Bead:      26 positions{angstrom}  cell{angstrom}
       E  6.47294e+00  6.93653e+01  2.22716e+01
       E  1.57031e+00  1.04578e+01 -1.92089e+01
       E -1.44516e+01 -4.43516e+01  8.79959e+00
3
# CELL(abcABC): 1322.94304  1322.94304  1322.94304    90.00000    90.00000    90.00000  Step:        8300  Bead:      26 positions{angstrom}  cell{angstrom}
       E  9.60518e+00  7.65794e+01  2.80670e+01
       E  9.87605e+00 -6.78809e+00 -2.00650e+01
       E  2.49691e+01 -4.47920e+01  2.20672e+01
3
# CELL(abcABC): 1322.94304  1322.94304  1322.94304    90.00000    90.00000    90.00000  Step:        8400  Bead:      26 positions{angstrom}  cell{angstrom}
       E -1.31100e+01 -1.21023e+01  7.99987e+00
       E  2.41450e+00  2.79855e+01  3.65225e+01
       E -9.25902e+00 -4.64894e+01  6.40824e+01
3
# CELL(abcABC): 1322.94304  1322.94304  1322.94304    90.00000    90.00000    90.00000  Step:        8500  Bead:      26 positions{angstrom}  cell{angstrom}
       E -9.21791e+00 -1.45483e+01 -2.99350e+01
       E -3.30859e+00 -6.59842e+00 -1.75588e+01
       E  7.64968e+00 -1.98181e+01  4.94706e+01
3
# CELL(abcABC): 1322.94304  1322.94304  1322.94304    90.00000    90.00000    90.00000  Step:        8600  Bead:      26 positions{angstrom}  cell{angstrom}
       E -1.37984e+00 -8.34599e+00 -1.49245e+01
       E  2.23508e+01 -1.69990e+01  3.80100e+01
       E  5.16724e+01  7.95043e-02  5.83366e+01
3
# CELL(abcABC): 1322.94304  1322.94304  1322.94304    90.00000    90.00000    90.00000  Step:        8700  Bead:      26 positions{angstrom}  cell{angstrom}
       E -1.03869e+00  4.61882e-01 -2.23418e+01
       E  3.78507e+00  9.91798e-01  3.63055e+01
       E  6.54978e+01 -1.14727e+01  1.43710e+01
3
# CELL(abcABC): 1322.94304  1322.94304  1322.94304    90.00000    90.00000    90.00000  Step:        8800  Bead:      26 positions{angstrom}  cell{angstrom}
       E -4.34181e+01  1.09870e+01  4.28946e+00
       E -1.11717e+01 -3.06417e+01  2.53750e+01
       E  5.21214e+01 -2.50285e+01  2.11765e+01
3
# CELL(abcABC): 1322.94304  1322.94304  1322.94304    90.00000    90.00000    90.00000  Step:        8900  Bead:      26 positions{angstrom}  cell{angstrom}
       E -3.73131e+01  2.91731e+01  5.68239e+00
       E  1.26054e+01 -3.84145e+01  1.28893e+01
       E  3.50021e+01 -5.56663e+01  1.17367e+01
3
# CELL(abcABC): 1322.94304  1322.94304  1322.94304    90.00000    90.00000    90.00000  Step:        9000  Bead:      26 positions{angstrom}  cell{angstrom}
       E -3.00473e+01  3.99964e+01  2.12585e+01
       E  1.28901e+01 -3.83239e+01  5.94855e+01
       E  1.52988e+00 -9.19002e+01  8.47017e-01
3
# CELL(abcABC): 1322.94304  1322.94304  1322.94304    90.00000    90.00000    90.00000  Step:        9100  Bead:      26 positions{angstrom}  cell{angstrom}
       E -3.54446e+01  2.50896e+01 -4.82695e+00
       E -8.71057e+00 -2.32061e+00  4.48542e+01
       E  4.29319e+01 -6.41163e+01 -4.30831e-01
3
# CELL(abcABC): 1322.94304  1322.94304  1322.94304    90.00000    90.00000    90.00000  Step:        9200  Bead:      26 positions{angstrom}  cell{angstrom}
       E  2.01052e+01  3.78904e+01 -3.35489e+01
       E  1.18610e+01 -5.82366e+00 -4.58347e+00
       E  3.94917e+01 -4.03747e+01  1.93651e+00
3
# CELL(abcABC): 1322.94304  1322.94304  1322.94304    90.00000    90.00000    90.00000  Step:        9300  Bead:      26 positions{angstrom}  cell{angstrom}
       E  3.83161e+01 -2.30413e+01 -8.57811e+01
       E -2.48119e+01 -3.65331e+01  3.12948e+01
       E  2.95350e+01 -9.14326e+00  1.15347e+01
3
# CELL(abcABC): 1322.94304  1322.94304  1322.94304    90.00000    90.00000    90.00000  Step:        9400  Bead:      26 positions{angstrom}  cell{angstrom}
       E  6.32817e+01  8.28081e+00 -7.19128e+01
       E -1.82962e+00 -2.38840e+01  2.94659e+01
       E  2.39385e+01 -1.00880e+01 -1.70821e+01
3
# CELL(abcABC): 1322.94304  1322.94304  1322.94304    90.00000    90.00000    90.00000  Step:        9500  Bead:      26 positions{angstrom}  cell{angstrom}
       E  3.53440e+01  3.76124e+01 -4.46285e+01
       E  1.92124e+01 -1.97913e+01  4.66397e+01
       E  3.03588e+01 -2.02633e+00  3.95368e+00
3
# CELL(abcABC): 1322.94304  1322.94304  1322.94304    90.00000    90.00000    90.00000  Step:        9600  Bead:      26 positions{angstrom}  cell{angstrom}
       E  3.74355e+01 -2.61336e+01 -5.09864e+01
       E  3.37118e+01 -4.21614e+01 -7.31690e+00
       E  7.77116e+00 -7.24985e+00 -1.43395e+01
3
# CELL(abcABC): 1322.94304  1322.94304  1322.94304    90.00000    90.00000    90.00000  Step:        9700  Bead:      26 positions{angstrom}  cell{angstrom}
       E -2.00394e+01 -4.77221e+01 -7.32833e+01
       E  4.36377e+01 -1.07440e+02  5.13919e+00
       E -3.06400e+01 -6.14435e+00 -2.34511e+00
3
# CELL(abcABC): 1322.94304  1322.94304  1322.94304    90.00000    90.00000    90.00000  Step:        9800  Bead:      26 positions{angstrom}  cell{angstrom}
       E -4.09402e+01 -5.60050e+01 -2.60725e+01
       E  4.27367e+01 -5.54642e+01 -5.35480e+00
       E -2.13250e+01 -1.52486e+01  7.56756e+00
3