3
# CELL(abcABC): 1322.94304  1322.94304  1322.94304    90.00000    90.00000    90.00000  Step:           0  Bead:      25 positions{angstrom}  cell{angstrom}
       E  0.00000e+00  0.00000e+00  0.00000e+00
       E  0.00000e+00  0.00000e+00  0.00000e+00
       E  0.00000e+00  0.00000e+00  0.00000e+00
3
# CELL(abcABC): 1322.94304  1322.94304  1322.94304    90.00000    90.00000    90.00000  Step:         100  Bead:      25 positions{angstrom}  cell{angstrom}
       E  2.47779e+01 -2.76152e+01  1.45120e+01
       E  9.19558e+00 -5.22768e+01  2.21332e+01
       E  1.67323e+00  5.41452e+00 -6.37927e+00
3
# CELL(abcABC): 1322.94304  1322.94304  1322.94304    90.00000    90.00000    90.00000  Step:         200  Bead:      25 positions{angstrom}  cell{angstrom}
       E -2.00103e+01 -8.04093e+00  4.02322e+01
       E -1.25092e+01 -7.48255e+01  1.14884e+01
       E  3.28122e+01  3.38430e+01  3.44843e+00
3
# CELL(abcABC): 1322.94304  1322.94304  1322.94304    90.00000    90.00000    90.00000  Step:         300  Bead:      25 positions{angstrom}  cell{angstrom}
       E  1.10610e+01 -2.12674e+01  1.52573e+01
       E  5.90222e+00 -3.50595e+01  3.19316e-01
       E  1.50104e+01  2.10878e+01  7.93957e+00
3
# CELL(abcABC): 1322.94304  1322.94304  1322.94304    90.00000    90.00000    90.00000  Step:         400  Bead:      25 positions{angstrom}  cell{angstrom}
       E  2.05603e+01  7.32193e+00 -1.88253e+01
       E  1.07938e+01 -3.79157e+01 -1.59346e+01
       E  1.55279e+01  2.24276e+01  8.00397e+00
3
# CELL(abcABC): 1322.94304  1322.94304  1322.94304    90.00000    90.00000    90.00000  Step:         500  Bead:      25 positions{angstrom}  cell{angstrom}
       E  5.34376e+01 -1.24987e+01 -4.77569e+01
       E -9.61121e-01  6.06141e+00  2.30323e+01
       E  1.44140e+01  2.22677e+00  2.22002e+01
3
# CELL(abcABC): 1322.94304  1322.94304  1322.94304    90.00000    90.00000    90.00000  Step:         600  Bead:      25 positions{angstrom}  cell{angstrom}
       E  3.89563e+01 -1.25484e+01 -2.74372e+01
       E  1.06535e+01 -1.42478e+01  4.02412e+01
       E  2.07591e+01  3.67899e+01  5.12922e+01
3
# CELL(abcABC): 1322.94304  1322.94304  1322.94304    90.00000    90.00000    90.00000  Step:         700  Bead:      25 positions{angstrom}  cell{angstrom}
       E  3.29957e+01 -9.91519e+00 -3.69884e+01
       E  1.13371e+01 -2.55911e+01  3.77722e+01
       E -3.04614e+01  3.06864e+01  6.13841e+01
3
# CELL(abcABC): 1322.94304  1322.94304  1322.94304    90.00000    90.00000    90.00000  Step:         800  Bead:      25 positions{angstrom}  cell{angstrom}
       E  4.27456e+01  7.99170e+00 -2.32340e+01
       E  3.06581e+01 -6.44053e+00  3.13122e+01
       E -3.72826e+01  4.35563e+01  5.18346e+01
3
# CELL(abcABC): 1322.94304  1322.94304  1322.94304    90.00000    90.00000    90.00000  Step:         900  Bead:      25 positions{angstrom}  cell{angstrom}
       E  1.30861e+01  2.69718e+01 -5.04673e+01
       E -1.02178e+01 -1.34320e+01  2.31433e+01
       E -5.68434e+01  1.95510e+01  1.08775e+02
3
# CELL(abcABC): 1322.94304  1322.94304  1322.94304    90.00000    90.00000    90.00000  Step:        1000  Bead:      25 positions{angstrom}  cell{angstrom}
       E  1.44801e+01  2.92301e+01 -5.20383e+01
       E  6.04103e+00  2.92156e+01  3.56747e+00
       E -1.90730e+01  4.03510e+01  7.03114e+01
3
# CELL(abcABC): 1322.94304  1322.94304  1322.94304    90.00000    90.00000    90.00000  Step:        1100  Bead:      25 positions{angstrom}  cell{angstrom}
       E -8.00406e+00  1.94696e+01 -3.44545e+01
       E -7.61579e+00  1.35943e+01 -3.31008e+01
       E  1.36969e+01  1.63538e+01  4.95695e+01
3
# CELL(abcABC): 1322.94304  1322.94304  1322.94304    90.00000    90.00000    90.00000  Step:        1200  Bead:      25 positions{angstrom}  cell{angstrom}
       E  3.87543e-01 -1.19804e+00 -2.57453e+01
       E  2.07282e+01  1.77675e+01 -4.01977e+01
       E  1.61859e+00  8.76233e+01  3.09456e+01
3
# CELL(abcABC): 1322.94304  1322.94304  1322.94304    90.00000    90.00000    90.00000  Step:        1300  Bead:      25 positions{angstrom}  cell{angstrom}
       E  6.81188e+00  2.38606e+01 -3.92590e+01
       E  1.63203e+01 -7.44728e+00 -8.41824e+01
       E -8.56195e+00  4.38826e+01  1.29634e+01
3
# CELL(abcABC): 1322.94304  1322.94304  1322.94304    90.00000    90.00000    90.00000  Step:        1400  Bead:      25 positions{angstrom}  cell{angstrom}
       E -2.03386e+01  5.50686e+01 -4.65198e+01
       E -9.65603e+00 -1.89889e+01 -5.33780e+01
       E -1.36000e+01  1.39464e+01  1.66886e+01
3
# CELL(abcABC): 1322.94304  1322.94304  1322.94304    90.00000    90.00000    90.00000  Step:        1500  Bead:      25 positions{angstrom}  cell{angstrom}
       E  6.45042e+00  5.27233e+01 -6.83403e+01
       E -2.52582e+01  2.20058e+00 -4.87147e+01
       E  1.25228e+01  1.79968e+01  4.45957e+01
3
# CELL(abcABC): 1322.94304  1322.94304  1322.94304    90.00000    90.00000    90.00000  Step:        1600  Bead:      25 positions{angstrom}  cell{angstrom}
       E -2.79035e+01  3.15455e+01 -6.43673e+01
       E -3.92792e+01  2.04949e+00  3.36272e+01
       E  1.34809e+00  5.05588e+01  2.23397e+01
3
# CELL(abcABC): 1322.94304  1322.94304  1322.94304    90.00000    90.00000    90.00000  Step:        1700  Bead:      25 positions{angstrom}  cell{angstrom}
       E -3.54871e+01  3.36594e+01 -4.81218e+00
       E -2.47393e+01  3.02567e+01  3.91812e+01
       E -6.48227e+00  2.83843e+01 -1.74745e+01
3
# CELL(abcABC): 1322.94304  1322.94304  1322.94304    90.00000    90.00000    90.00000  Step:        1800  Bead:      25 positions{angstrom}  cell{angstrom}
       E -1.30928e+01  3.00661e+01  3.72147e+01
       E -5.01732e+01  1.18304e+01  4.12587e+00
       E -3.51049e+01  4.84912e+01 -1.16898e+01
3
# CELL(abcABC): 1322.94304  1322.94304  1322.94304    90.00000    90.00000    90.00000  Step:        1900  Bead:      25 positions{angstrom}  cell{angstrom}
       E -1.75248e-01  8.34373e+00  3.53038e+01
       E -4.85603e+01  5.06556e+01  2.98595e+00
       E -3.10397e+01  2.32749e+01 -7.15074e+00
3
# CELL(abcABC): 1322.94304  1322.94304  1322.94304    90.00000    90.00000    90.00000  Step:        2000  Bead:      25 positions{angstrom}  cell{angstrom}
       E -2.64535e+01 -2.82866e+01  6.48267e+01
       E -2.05192e+01  2.50796e+01  5.33192e+00
       E -7.86676e+01  5.20951e+01 -1.38919e+01
3
# CELL(abcABC): 1322.94304  1322.94304  1322.94304    90.00000    90.00000    90.00000  Step:        2100  Bead:      25 positions{angstrom}  cell{angstrom}
       E -7.87279e+00 -5.19475e+01  2.96279e+01
       E  3.46853e+00 -5.31271e+00  2.89645e+01
       E -4.78252e+01  9.70900e+01  1.18426e+00
3
# CELL(abcABC): 1322.94304  1322.94304  1322.94304    90.00000    90.00000    90.00000  Step:        2200  Bead:      25 positions{angstrom}  cell{angstrom}
       E -2.17602e+01 -4.37097e+01  5.98807e+00
       E  3.02364e+00  2.02621e-01  5.24761e+00
       E -3.54726e+01  3.52249e+01 -2.85285e+00
3
# CELL(abcABC): 1322.94304  1322.94304  1322.94304    90.00000    90.00000    90.00000  Step:        2300  Bead:      25 positions{angstrom}  cell{angstrom}
       E -2.72013e+01 -7.72820e+01 -1.39458e+01
       E -3.21582e+01  1.30111e+01 -8.54834e+00
       E -4.26710e+01  2.55033e+01 -2.07456e+01
3
# CELL(abcABC): 1322.94304  1322.94304  1322.94304    90.00000    90.00000    90.00000  Step:        2400  Bead:      25 positions{angstrom}  cell{angstrom}
       E -3.03403e+01 -7.51549e+01  1.17737e+01
       E -3.15666e+01 -3.47473e+01 -2.20065e+01
       E -6.95920e+00  1.02544e+01 -2.66957e+01
3
# CELL(abcABC): 1322.94304  1322.94304  1322.94304    90.00000    90.00000    90.00000  Step:        2500  Bead:      25 positions{angstrom}  cell{angstrom}
       E -3.09913e+01  1.58834e+01  1.78606e+01
       E -1.54764e+01 -7.06207e+01 -3.19716e+01
       E  5.59934e+00  4.27505e+00  3.31397e+01
3
# CELL(abcABC): 1322.94304  1322.94304  1322.94304    90.00000    90.00000    90.00000  Step:        2600  Bead:      25 positions{angstrom}  cell{angstrom}
       E -5.27431e+01 -2.34730e+01  5.00858e+01
       E -6.37041e+01 -5.66744e+01 -1.83448e+01
       E  1.40707e+01 -2.10594e+01  8.08868e+01
3
# CELL(abcABC): 1322.94304  1322.94304  1322.94304    90.00000    90.00000    90.00000  Step:        2700  Bead:      25 positions{angstrom}  cell{angstrom}
       E -6.21298e+01 -4.30655e+01  7.99169e+01
       E -2.24344e+01 -4.91280e+01 -3.77447e+01
       E -4.68644e+00 -2.76851e+01  1.02756e+02
3
# CELL(abcABC): 1322.94304  1322.94304  1322.94304    90.00000    90.00000    90.00000  Step:        2800  Bead:      25 positions{angstrom}  cell{angstrom}
       E -5.01824e+01 -4.70155e+01  9.35096e+01
       E -6.30850e+01 -5.15094e+01 -1.26340e+01
       E  3.58743e+01 -2.03851e+01  5.32783e+01
3
# CELL(abcABC): 1322.94304  1322.94304  1322.94304    90.00000    90.00000    90.00000  Step:        2900  Bead:      25 positions{angstrom}  cell{angstrom}
       E -7.37660e+01 -5.61677e+01  7.74370e+01
       E -6.18744e+01 -3.52847e+01  2.60278e+01
       E  4.66925e+01 -3.01509e+01  4.18921e+01
3
# CELL(abcABC): 1322.94304  1322.94304  1322.94304    90.00000    90.00000    90.00000  Step:        3000  Bead:      25 positions{angstrom}  cell{angstrom}
       E -8.30919e+01 -4.78921e+01  5.65164e+01
       E -7.52296e+01 -7.16706e+01  2.46321e+01
       E  2.17624e+01  2.15015e+01 -9.87209e+00
3
# CELL(abcABC): 1322.94304  1322.94304  1322.94304    90.00000    90.00000    90.00000  Step:        3100  Bead:      25 positions{angstrom}  cell{angstrom}
       E -8.10642e+01 -3.77557e+01  4.35469e+01
       E -7.89905e+01 -7.25723e+01  6.38320e+01
       E  8.25836e+01  6.51089e+01 -1.09912e+00
3
# CELL(abcABC): 1322.94304  1322.94304  1322.94304    90.00000    90.00000    90.00000  Step:        3200  Bead:      25 positions{angstrom}  cell{angstrom}
       E -7.92498e+01 -4.82284e+01  4.18590e+01
       E -5.45359e+01 -1.24811e+01  9.46032e+01
       E  5.49051e+01  5.79821e+01 -2.84835e+00
3
# CELL(abcABC): 1322.94304  1322.94304  1322.94304    90.00000    90.00000    90.00000  Step:        3300  Bead:      25 positions{angstrom}  cell{angstrom}
       E -6.21720e+01 -1.26466e+01  6.35546e+01
       E -9.15566e+01  2.22861e+01  6.78872e+01
       E  6.01135e+01  8.07978e+01  2.94523e+00
3
# CELL(abcABC): 1322.94304  1322.94304  1322.94304    90.00000    90.00000    90.00000  Step:        3400  Bead:      25 positions{angstrom}  cell{angstrom}
       E -1.08855e+02  2.42335e+01  8.89901e+01
       E -4.84956e+01 -2.76886e+01  2.38827e+01
       E  3.26383e+01  8.54677e+01  6.18734e+01
3
# CELL(abcABC): 1322.94304  1322.94304  1322.94304    90.00000    90.00000    90.00000  Step:        3500  Bead:      25 positions{angstrom}  cell{angstrom}
       E -9.81478e+01  9.96665e+00  8.83715e+01
       E -3.46746e+01 -2.57738e+01  2.99466e+01
       E  4.56649e+01  5.63201e+01  2.53290e+01
3
# CELL(abcABC): 1322.94304  1322.94304  1322.94304    90.00000    90.00000    90.00000  Step:        3600  Bead:      25 positions{angstrom}  cell{angstrom}
       E -1.08726e+02 -4.59435e+01  4.25085e+01
       E -2.99148e+01 -3.89798e+01  6.94885e+01
       E -4.17831e+01  3.59888e+01  1.68607e+01
3
# CELL(abcABC): 1322.94304  1322.94304  1322.94304    90.00000    90.00000    90.00000  Step:        3700  Bead:      25 positions{angstrom}  cell{angstrom}
       E -9.20089e+01 -2.03891e+01  9.98417e+00
       E  1.47544e+01 -3.93092e+01  2.82319e+01
       E -6.22083e+01  1.20561e+01  1.27591e+01
3
# CELL(abcABC): 1322.94304  1322.94304  1322.94304    90.00000    90.00000    90.00000  Step:        3800  Bead:      25 positions{angstrom}  cell{angstrom}
       E -7.62979e+01 -6.95048e+00  7.84251e+00
       E -6.81743e+00 -3.48048e+01  1.03170e+01
       E -2.29482e+01 -3.56276e+01  4.51511e+00
3
# CELL(abcABC): 1322.94304  1322.94304  1322.94304    90.00000    90.00000    90.00000  Step:        3900  Bead:      25 positions{angstrom}  cell{angstrom}
       E -5.42912e+01  1.23541e+01  3.32296e+00
       E -9.41053e+00 -3.55196e+01  3.08788e+01
       E  4.02145e+00 -1.80274e+01  1.00767e+01
3
# CELL(abcABC): 1322.94304  1322.94304  1322.94304    90.00000    90.00000    90.00000  Step:        4000  Bead:      25 positions{angstrom}  cell{angstrom}
       E -8.17158e+01  1.46287e+01 -4.02594e+01
       E -4.76228e+01 -1.47244e+01  1.42683e+00
       E -2.45191e+01 -4.48517e+00  1.27532e+00
3
# CELL(abcABC): 1322.94304  1322.94304  1322.94304    90.00000    90.00000    90.00000  Step:        4100  Bead:      25 positions{angstrom}  cell{angstrom}
       E -8.60692e+01  1.94765e+01 -7.12869e+01
       E -6.97517e+01  1.65839e+01 -8.89251e+00
       E -7.72117e+00 -1.24307e+01  6.28202e+00
3
# CELL(abcABC): 1322.94304  1322.94304  1322.94304    90.00000    90.00000    90.00000  Step:        4200  Bead:      25 positions{angstrom}  cell{angstrom}
       E -8.98468e+01 -1.13127e+01 -1.18627e+02
       E -6.29468e+01  1.80351e+01 -3.07044e+01
       E  3.44202e+01 -4.01038e+00 -1.27478e+01
3
# CELL(abcABC): 1322.94304  1322.94304  1322.94304    90.00000    90.00000    90.00000  Step:        4300  Bead:      25 positions{angstrom}  cell{angstrom}
       E -5.92322e+01  5.05120e+00 -7.80230e+01
       E -5.18547e+01  5.84827e+01 -3.59726e+00
       E  8.72426e+00 -1.00494e+01  1.25066e+01
3
# CELL(abcABC): 1322.94304  1322.94304  1322.94304    90.00000    90.00000    90.00000  Step:        4400  Bead:      25 positions{angstrom}  cell{angstrom}
       E -2.87199e+01  2.43935e+01 -8.13936e+01
       E -5.06822e+01  4.60743e+01 -1.20220e+00
       E  3.22328e+01 -4.41147e+01  2.68896e+01
3
# CELL(abcABC): 1322.94304  1322.94304  1322.94304    90.00000    90.00000    90.00000  Step:        4500  Bead:      25 positions{angstrom}  cell{angstrom}
       E -6.24454e+01  1.23497e+01 -7.35238e+01
       E -3.89816e+01  5.57654e+01 -6.42960e+00
       E  2.92870e+01 -5.01894e+01  3.52656e+01
3
# CELL(abcABC): 1322.94304  1322.94304  1322.94304    90.00000    90.00000    90.00000  Step:        4600  Bead:      25 positions{angstrom}  cell{angstrom}
       E -6.55160e+01  3.93445e+01 -7.46721e+01
       E -6.01123e+01  5.36469e+01  1.36942e+01
       E -4.82460e+00 -5.10672e+01  2.94256e+01
3
# CELL(abcABC): 1322.94304  1322.94304  1322.94304    90.00000    90.00000    90.00000  Step:        4700  Bead:      25 positions{angstrom}  cell{angstrom}
       E -2.41977e+01  5.87519e+01 -1.05296e+02
       E -5.01788e+01  3.88656e+01 -1.98552e+01
       E -2.83520e+01 -6.74607e+01  5.15598e+01
3
# CELL(abcABC): 1322.94304  1322.94304  1322.94304    90.00000    90.00000    90.00000  Step:        4800  Bead:      25 positions{angstrom}  cell{angstrom}
       E -2.23437e+01  4.52881e+01 -8.77003e+01
       E -1.93896e+01  2.18629e+01 -1.37356e+01
       E  1.65776e+01 -4.94770e+01  3.02788e+01
3
# CELL(abcABC): 1322.94304  1322.94304  1322.94304    90.00000    90.00000    90.00000  Step:        4900  Bead:      25 positions{angstrom}  cell{angstrom}
       E  7.89744e+00  6.18232e+01 -4.30356e+01
       E -2.57590e+01 -1.98066e+01 -3.75644e+01
       E -8.21874e+00 -6.14694e+01 -1.86948e+01
3
# CELL(abcABC): 1322.94304  1322.94304  1322.94304    90.00000    90.00000    90.00000  Step:        5000  Bead:      25 positions{angstrom}  cell{angstrom}
       E  7.39204e+01  2.05271e+01  5.95655e+00
       E -4.01540e+01 -2.17531e+01 -2.29733e+01
       E -2.15749e+01 -3.27561e+01  4.20417e+00
3
# CELL(abcABC): 1322.94304  1322.94304  1322.94304    90.00000    90.00000    90.00000  Step:        5100  Bead:      25 positions{angstrom}  cell{angstrom}
       E  3.33660e+01  2.93397e+01  1.16062e+01
       E -2.35857e+01  3.70175e+00 -1.81472e+01
       E  1.88411e+01  2.70334e-01 -3.08511e+01
3
# CELL(abcABC): 1322.94304  1322.94304  1322.94304    90.00000    90.00000    90.00000  Step:        5200  Bead:      25 positions{angstrom}  cell{angstrom}
       E  2.26143e+01  5.59074e+00  4.45737e+01
       E -2.75222e+01  1.22821e+01 -2.39301e+01
       E  1.26679e+01  1.24973e+01 -1.22313e+00
3
# CELL(abcABC): 1322.94304  1322.94304  1322.94304    90.00000    90.00000    90.00000  Step:        5300  Bead:      25 positions{angstrom}  cell{angstrom}
       E  2.19191e+01 -3.12118e+01 -1.73604e+01
       E -3.49777e+01  4.46015e+00  7.24281e+00
       E -4.99711e+01  4.10206e+01  2.59502e+01
3
# CELL(abcABC): 1322.94304  1322.94304  1322.94304    90.00000    90.00000    90.00000  Step:        5400  Bead:      25 positions{angstrom}  cell{angstrom}
       E  4.37956e+01  6.60659e+00 -2.09510e+01
       E -3.60084e+01  4.09206e+01 -6.52091e+00
       E -2.42859e+01  3.74149e+01  2.80234e+01
3
# CELL(abcABC): 1322.94304  1322.94304  1322.94304    90.00000    90.00000    90.00000  Step:        5500  Bead:      25 positions{angstrom}  cell{angstrom}
       E  3.96625e+01 -2.24946e+01 -6.93033e-02
       E -2.54785e+01  1.67581e+01  8.60598e+00
       E -1.99894e+01  5.59151e+01  8.16911e+00
3
# CELL(abcABC): 1322.94304  1322.94304  1322.94304    90.00000    90.00000    90.00000  Step:        5600  Bead:      25 positions{angstrom}  cell{angstrom}
       E  1.50277e+01 -6.30925e+00 -4.61900e+01
       E -7.46724e+00  2.28952e+01  1.85927e+01
       E -3.08210e+01  3.01785e+01  9.25697e+00
3
# CELL(abcABC): 1322.94304  1322.94304  1322.94304    90.00000    90.00000    90.00000  Step:        5700  Bead:      25 positions{angstrom}  cell{angstrom}
       E  4.35851e+01  1.57278e+01 -5.39637e+01
       E  5.48582e+00  1.05775e+01 -2.12386e+01
       E -4.22037e+01 -9.32111e+00  2.72455e+01
3
# CELL(abcABC): 1322.94304  1322.94304  1322.94304    90.00000    90.00000    90.00000  Step:        5800  Bead:      25 positions{angstrom}  cell{angstrom}
       E  3.87807e+01  2.10716e+01 -1.54305e+01
       E -1.59908e+01 -2.51232e+01 -2.48416e+00
       E -2.73187e+01 -1.98162e+01 -7.20530e+00
3
# CELL(abcABC): 1322.94304  1322.94304  1322.94304    90.00000    90.00000    90.00000  Step:        5900  Bead:      25 positions{angstrom}  cell{angstrom}
       E  1.64015e+01 -6.84740e+00 -6.59159e+00
       E  1.01585e+01  1.80081e+01 -2.29367e+01
       E -1.02498e+01 -4.64294e+01  1.65958e+01
3
# CELL(abcABC): 1322.94304  1322.94304  1322.94304    90.00000    90.00000    90.00000  Step:        6000  Bead:      25 positions{angstrom}  cell{angstrom}
       E  3.02582e+00 -4.47007e+01 -2.48758e+01
       E  7.86281e+00  1.31565e+01 -4.69292e+01
       E -1.49857e+01 -4.47392e+01  2.39954e+01
3
# CELL(abcABC): 1322.94304  1322.94304  1322.94304    90.00000    90.00000    90.00000  Step:        6100  Bead:      25 positions{angstrom}  cell{angstrom}
       E  2.24516e+01 -4.99191e+01 -5.31661e+01
       E  7.39541e+01 -2.17303e+01 -4.75157e+01
       E  2.45198e+01 -6.76539e+00 -4.34753e+00
3
# CELL(abcABC): 1322.94304  1322.94304  1322.94304    90.00000    90.00000    90.00000  Step:        6200  Bead:      25 positions{angstrom}  cell{angstrom}
       E  1.20995e+01 -2.26302e+01 -8.39246e+01
       E  8.71758e+01  4.33206e+01  7.19794e+00
       E -1.46241e+01 -5.51445e+01  4.22859e+01
3
# CELL(abcABC): 1322.94304  1322.94304  1322.94304    90.00000    90.00000    90.00000  Step:        6300  Bead:      25 positions{angstrom}  cell{angstrom}
       E  3.76001e+01 -7.31175e+01 -1.10980e+02
       E  7.66107e+01 -9.10646e-01 -1.74870e+01
       E  3.25872e+01 -6.93533e+01  3.40936e+01
3
# CELL(abcABC): 1322.94304  1322.94304  1322.94304    90.00000    90.00000    90.00000  Step:        6400  Bead:      25 positions{angstrom}  cell{angstrom}
       E  9.21475e+01 -7.12425e+01 -1.21848e+02
       E  2.77644e+01 -2.28175e+00 -4.40123e+01
       E  1.85516e+01 -3.64597e+01  4.62955e+00
3
# CELL(abcABC): 1322.94304  1322.94304  1322.94304    90.00000    90.00000    90.00000  Step:        6500  Bead:      25 positions{angstrom}  cell{angstrom}
       E  4.89326e+01 -9.33463e+01 -1.36185e+02
       E -2.77590e+00  2.13012e+00 -6.66591e+01
       E  1.08448e+01 -5.89958e+00  1.70403e+00
3
# CELL(abcABC): 1322.94304  1322.94304  1322.94304    90.00000    90.00000    90.00000  Step:        6600  Bead:      25 positions{angstrom}  cell{angstrom}
       E  2.23866e+01 -9.69401e+01 -1.02682e+02
       E  4.60391e+01  2.25442e+01 -3.92604e+01
       E  4.66547e+00  1.86238e+01  9.63722e+00
3
# CELL(abcABC): 1322.94304  1322.94304  1322.94304    90.00000    90.00000    90.00000  Step:        6700  Bead:      25 positions{angstrom}  cell{angstrom}
       E  3.70358e+01 -1.03506e+02 -1.13757e+02
       E  5.49186e+01  1.95213e+01 -1.77485e+01
       E -3.43977e+01 -1.54574e+01  5.55667e+01
3
# CELL(abcABC): 1322.94304  1322.94304  1322.94304    90.00000    90.00000    90.00000  Step:        6800  Bead:      25 positions{angstrom}  cell{angstrom}
       E  3.94198e+01 -1.17096e+02 -1.04532e+02
       E  3.34934e+01 -6.12975e+00 -4.40005e+00
       E -3.66260e+01 -4.93792e+01  3.40261e+01
3
# CELL(abcABC): 1322.94304  1322.94304  1322.94304    90.00000    90.00000    90.00000  Step:        6900  Bead:      25 positions{angstrom}  cell{angstrom}
       E  3.96387e+01 -7.92026e+01 -4.06864e+01
       E  5.35901e+01 -9.49187e+00 -2.60437e+01
       E  1.83820e+00 -2.72697e+01  4.74064e+00
3
# CELL(abcABC): 1322.94304  1322.94304  1322.94304    90.00000    90.00000    90.00000  Step:        7000  Bead:      25 positions{angstrom}  cell{angstrom}
       E  4.52987e+01 -4.63973e+01 -1.37453e+01
       E  3.70133e+01  2.39853e+01 -1.87749e+01
       E  3.21411e+01  1.69973e+00 -7.46477e+01
3
# CELL(abcABC): 1322.94304  1322.94304  1322.94304    90.00000    90.00000    90.00000  Step:        7100  Bead:      25 positions{angstrom}  cell{angstrom}
       E  3.05028e+00 -4.42772e+01 -3.42518e+01
       E  1.35764e+00  3.76211e+01  2.05513e+00
       E  6.24907e+01  4.95806e+00 -1.65572e+01
3
# CELL(abcABC): 1322.94304  1322.94304  1322.94304    90.00000    90.00000    90.00000  Step:        7200  Bead:      25 positions{angstrom}  cell{angstrom}
       E -3.17648e+00 -3.53153e+01 -6.76172e+01
       E -2.26747e+01  4.56293e+01  8.60718e+00
       E  4.60357e+01  3.19193e+01 -4.47397e+01
3
# CELL(abcABC): 1322.94304  1322.94304  1322.94304    90.00000    90.00000    90.00000  Step:        7300  Bead:      25 positions{angstrom}  cell{angstrom}
       E  4.63344e+01 -1.47343e+00 -5.46454e+01
       E -3.70265e+01 -4.38070e+00 -1.40773e+01
       E  4.57374e+01  4.16418e+01  4.65267e+00
3
# CELL(abcABC): 1322.94304  1322.94304  1322.94304    90.00000    90.00000    90.00000  Step:        7400  Bead:      25 positions{angstrom}  cell{angstrom}
       E  1.00387e+01 -4.47093e+01 -4.13699e+01
       E -1.84049e+01 -1.52883e+01 -1.90508e+01
       E  6.48842e+01  1.42236e+01  6.16993e+00
3
# CELL(abcABC): 1322.94304  1322.94304  1322.94304    90.00000    90.00000    90.00000  Step:        7500  Bead:      25 positions{angstrom}  cell{angstrom}
       E -1.56819e+01 -5.52117e+01 -4.43824e+01
       E -2.22803e+01 -3.37180e+01  6.16484e+00
       E  3.79396e+01  4.20815e+01  2.10570e+01
3
# CELL(abcABC): 1322.94304  1322.94304  1322.94304    90.00000    90.00000    90.00000  Step:        7600  Bead:      25 positions{angstrom}  cell{angstrom}
       E -1.94080e+01 -9.05658e+01 -6.20999e+01
       E -9.03580e+01 -3.11378e+01  2.32427e+01
       E  4.87137e+01  3.42141e+01 -2.24503e+01
3
# CELL(abcABC): 1322.94304  1322.94304  1322.94304    90.00000    90.00000    90.00000  Step:        7700  Bead:      25 positions{angstrom}  cell{angstrom}
       E -2.15510e+01 -4.76386e+01 -6.91957e+01
       E -1.27366e+01 -4.22446e+01 -9.96873e+00
       E  6.18968e+01  1.04739e+00 -2.74914e+01
3
# CELL(abcABC): 1322.94304  1322.94304  1322.94304    90.00000    90.00000    90.00000  Step:        7800  Bead:      25 positions{angstrom}  cell{angstrom}
       E  5.80954e+00 -3.90355e+01 -3.81383e+01
       E -3.57741e+00 -2.82398e+01 -1.83884e+01
       E  7.61554e+01 -1.78716e+01 -3.14388e+01
3
# CELL(abcABC): 1322.94304  1322.94304  1322.94304    90.00000    90.00000    90.00000  Step:        7900  Bead:      25 positions{angstrom}  cell{angstrom}
       E  3.88450e+01 -3.72907e+01 -4.84482e+01
       E  1.66981e+01 -4.88413e+01 -1.65190e+01
       E  1.82355e+01 -1.60831e+01 -6.30059e+01
3
# CELL(abcABC): 1322.94304  1322.94304  1322.94304    90.00000    90.00000    90.00000  Step:        8000  Bead:      25 positions{angstrom}  cell{angstrom}
       E  1.59155e+01 -3.64871e+00 -7.62900e+00
       E -3.48282e+00 -1.19161e+01 -6.52454e+01
       E  2.00896e+01  2.76049e+00 -1.56000e+01
3
# CELL(abcABC): 1322.94304  1322.94304  1322.94304    90.00000    90.00000    90.00000  Step:        8100  Bead:      25 positions{angstrom}  cell{angstrom}
       E  3.39059e+01  6.53802e+01 -2.82989e+01
       E -5.74894e+01  2.58961e+00 -6.06151e+01
       E  1.93866e+01 -2.52408e-01  9.63109e+00
3
# CELL(abcABC): 1322.94304  1322.94304  1322.94304    90.00000    90.00000    90.00000  Step:        8200  Bead:      25 positions{angstrom}  cell{angstrom}
       E  1.54962e+01  5.31664e+01  8.86560e+00
       E  3.81318e+00  9.92447e-01 -2.45194e+01
       E -1.99913e+01 -4.05641e+01  1.15188e+01
3
# CELL(abcABC): 1322.94304  1322.94304  1322.94304    90.00000    90.00000    90.00000  Step:        8300  Bead:      25 positions{angstrom}  cell{angstrom}
       E -1.95504e+01  7.00146e+01  3.33132e+01
       E  2.39986e+01  5.65072e-01 -2.80861e+01
       E  2.10183e+01 -4.15748e+01  3.42934e+01
3
# CELL(abcABC): 1322.94304  1322.94304  1322.94304    90.00000    90.00000    90.00000  Step:        8400  Bead:      25 positions{angstrom}  cell{angstrom}
       E -2.18176e+01 -4.49423e+00  1.89580e+00
       E  8.70308e+00  3.00228e+01  3.84834e+01
       E -8.60830e+00 -5.26274e+01  6.16437e+01
3
# CELL(abcABC): 1322.94304  1322.94304  1322.94304    90.00000    90.00000    90.00000  Step:        8500  Bead:      25 positions{angstrom}  cell{angstrom}
       E -2.64787e+01 -1.11349e+01 -1.89421e+01
       E  1.37086e+01  1.84364e+01 -5.59637e+00
       E  6.40521e+00 -3.64543e+01  5.82463e+01
3
# CELL(abcABC): 1322.94304  1322.94304  1322.94304    90.00000    90.00000    90.00000  Step:        8600  Bead:      25 positions{angstrom}  cell{angstrom}
       E -1.28073e+01  8.60330e+00  1.52243e+01
       E  1.81724e+01  3.44569e+00  3.72326e+01
       E  6.78782e+01 -3.00318e+00  4.14651e+01
3
# CELL(abcABC): 1322.94304  1322.94304  1322.94304    90.00000    90.00000    90.00000  Step:        8700  Bead:      25 positions{angstrom}  cell{angstrom}
       E -5.89921e+00  3.36223e+00 -2.60422e+01
       E  1.03916e+01  9.36179e+00  4.17613e+01
       E  6.73959e+01 -1.29242e+01  1.88566e+01
3
# CELL(abcABC): 1322.94304  1322.94304  1322.94304    90.00000    90.00000    90.00000  Step:        8800  Bead:      25 positions{angstrom}  cell{angstrom}
       E -6.03384e+01  3.80272e+00  8.20150e+00
       E -2.77406e+01 -3.61500e+01  2.74534e+01
       E  4.94428e+01 -4.78347e+01  3.00767e+01
3
# CELL(abcABC): 1322.94304  1322.94304  1322.94304    90.00000    90.00000    90.00000  Step:        8900  Bead:      25 positions{angstrom}  cell{angstrom}
       E -4.24282e+01  3.38305e+01  8.95382e+00
       E  1.36158e+01 -3.00625e+01  1.43867e+01
       E  3.79359e+01 -5.34718e+01  7.68925e+00
3
# CELL(abcABC): 1322.94304  1322.94304  1322.94304    90.00000    90.00000    90.00000  Step:        9000  Bead:      25 positions{angstrom}  cell{angstrom}
       E -4.16735e+01  1.19579e+01  7.47886e+00
       E  7.01777e+00 -2.37552e+01  7.24611e+01
       E  1.57549e+01 -7.78264e+01  7.31817e+00
3
# CELL(abcABC): 1322.94304  1322.94304  1322.94304    90.00000    90.00000    90.00000  Step:        9100  Bead:      25 positions{angstrom}  cell{angstrom}
       E -4.85850e+01  1.71007e+01 -4.16643e+00
       E  1.90688e-02  5.54132e+00  3.85428e+01
       E  2.17868e+01 -7.68424e+01 -8.63056e+00
3
# CELL(abcABC): 1322.94304  1322.94304  1322.94304    90.00000    90.00000    90.00000  Step:        9200  Bead:      25 positions{angstrom}  cell{angstrom}
       E  1.68686e+01  3.90106e+01 -4.96705e+01
       E  8.21224e+00 -1.09110e+01  6.91674e+00
       E  4.79510e+01 -5.27441e+01  2.50508e+01
3
# CELL(abcABC): 1322.94304  1322.94304  1322.94304    90.00000    90.00000    90.00000  Step:        9300  Bead:      25 positions{angstrom}  cell{angstrom}
       E  2.93908e+01 -2.65236e+01 -7.15799e+01
       E -2.25455e+01 -3.96574e+01  3.00776e+01
       E  2.74334e+01 -1.77648e+01 -3.54069e-01
3
# CELL(abcABC): 1322.94304  1322.94304  1322.94304    90.00000    90.00000    90.00000  Step:        9400  Bead:      25 positions{angstrom}  cell{angstrom}
       E  4.63760e+01  2.07414e+01 -5.31163e+01
       E  4.50025e+00 -1.15273e+01  4.61943e+01
       E  1.70544e+01  1.12065e+00 -2.07096e+01
3
# CELL(abcABC): 1322.94304  1322.94304  1322.94304    90.00000    90.00000    90.00000  Step:        9500  Bead:      25 positions{angstrom}  cell{angstrom}
       E  3.66865e+01  5.46113e+01 -6.15937e+01
       E  2.13672e+01 -2.05373e+01  5.77059e+01
       E  3.43232e+01 -1.17256e+01 -1.54046e+01
3
# CELL(abcABC): 1322.94304  1322.94304  1322.94304    90.00000    90.00000    90.00000  Step:        9600  Bead:      25 positions{angstrom}  cell{angstrom}
       E  1.73755e+01 -1.51161e+01 -2.70615e+01
       E  2.25503e+01 -6.42077e+01  2.39721e+00
       E  7.76360e+00 -1.11115e+01 -6.88257e+00
3
# CELL(abcABC): 1322.94304  1322.94304  1322.94304    90.00000    90.00000    90.00000  Step:        9700  Bead:      25 positions{angstrom}  cell{angstrom}
       E -2.01995e+01 -5.24618e+01 -5.63622e+01
       E  3.34024e+01 -9.78720e+01  9.42203e+00
       E -1.20582e+00  1.35776e+01 -3.48309e+00
3
# CELL(abcABC): 1322.94304  1322.94304  1322.94304    90.00000    90.00000    90.00000  Step:        9800  Bead:      25 positions{angstrom}  cell{angstrom}
       E -6.52185e+01 -4.66874e+01 -2.16742e+01
       E  4.49706e+01 -4.39983e+01  1.26272e+00
       E -1.84762e+01 -8.86320e+00  1.36832e+01
3