3
# CELL(abcABC): 1322.94304  1322.94304  1322.94304    90.00000    90.00000    90.00000  Step:           0  Bead:      21 positions{angstrom}  cell{angstrom}
       E  0.00000e+00  0.00000e+00  0.00000e+00
       E  0.00000e+00  0.00000e+00  0.00000e+00
       E  0.00000e+00  0.00000e+00  0.00000e+00
3
# CELL(abcABC): 1322.94304  1322.94304  1322.94304    90.00000    90.00000    90.00000  Step:         100  Bead:      21 positions{angstrom}  cell{angstrom}
       E  3.31129e+01 -9.41539e+00 -2.64917e+01
       E -3.57306e+01 -4.38926e+01 -1.72525e+01
       E -1.55010e+01  6.00743e+00 -5.05752e+00
3
# CELL(abcABC): 1322.94304  1322.94304  1322.94304    90.00000    90.00000    90.00000  Step:         200  Bead:      21 positions{angstrom}  cell{angstrom}
       E  2.73587e+01 -2.88980e+00 -3.34113e+00
       E  2.72039e+01 -3.99068e+01 -4.26075e+00
       E  3.33781e+01  5.06918e+01 -1.79773e+01
3
# CELL(abcABC): 1322.94304  1322.94304  1322.94304    90.00000    90.00000    90.00000  Step:         300  Bead:      21 positions{angstrom}  cell{angstrom}
       E  1.58512e+01 -2.19307e+00  3.13871e+01
       E  2.02693e+01  2.71114e+00  2.32081e+01
       E -2.67087e+01  1.54460e+01 -2.21010e+01
3
# CELL(abcABC): 1322.94304  1322.94304  1322.94304    90.00000    90.00000    90.00000  Step:         400  Bead:      21 positions{angstrom}  cell{angstrom}
       E -5.12553e+00  2.25377e+01 -1.40450e+01
       E  3.27714e+01 -1.76421e+01 -2.51982e+01
       E -2.75490e+01  3.09193e+01  1.38225e-01
3
# CELL(abcABC): 1322.94304  1322.94304  1322.94304    90.00000    90.00000    90.00000  Step:         500  Bead:      21 positions{angstrom}  cell{angstrom}
       E  1.57660e+00 -7.70237e+00 -1.34441e+01
       E  3.06866e+01  3.12101e+00  1.76163e+00
       E -1.92316e+01 -1.20393e+01  2.90349e+01
3
# CELL(abcABC): 1322.94304  1322.94304  1322.94304    90.00000    90.00000    90.00000  Step:         600  Bead:      21 positions{angstrom}  cell{angstrom}
       E  1.19186e+01 -3.05409e+00 -2.80376e+01
       E  2.37478e+01 -6.75834e+00 -1.19361e+01
       E -5.93077e+00 -3.49473e+00  2.52793e+01
3
# CELL(abcABC): 1322.94304  1322.94304  1322.94304    90.00000    90.00000    90.00000  Step:         700  Bead:      21 positions{angstrom}  cell{angstrom}
       E  2.79490e+01 -1.56680e+01 -1.63426e+01
       E  4.52902e+01  9.34864e+00  2.26184e+01
       E -3.48783e+01 -1.58142e+00  4.23909e+01
3
# CELL(abcABC): 1322.94304  1322.94304  1322.94304    90.00000    90.00000    90.00000  Step:         800  Bead:      21 positions{angstrom}  cell{angstrom}
       E  7.45942e+00  4.59565e-01 -2.53949e+01
       E  5.08251e+01  2.10548e+01  5.39171e+00
       E -3.06070e+01 -6.53606e+00  9.73245e+01
3
# CELL(abcABC): 1322.94304  1322.94304  1322.94304    90.00000    90.00000    90.00000  Step:         900  Bead:      21 positions{angstrom}  cell{angstrom}
       E -6.42737e-01  3.33919e+01 -6.89046e+01
       E  1.70314e+01 -2.10466e+01 -1.15935e+01
       E -7.24557e+01  8.84239e+00  9.52842e+01
3
# CELL(abcABC): 1322.94304  1322.94304  1322.94304    90.00000    90.00000    90.00000  Step:        1000  Bead:      21 positions{angstrom}  cell{angstrom}
       E  1.45624e+01  1.86390e+01 -2.79368e+01
       E -4.15904e+00 -6.41812e+00 -4.03330e+01
       E -5.16557e+01  4.11835e+00  6.82149e+01
3
# CELL(abcABC): 1322.94304  1322.94304  1322.94304    90.00000    90.00000    90.00000  Step:        1100  Bead:      21 positions{angstrom}  cell{angstrom}
       E  1.28741e+01  1.53758e+01 -5.73709e+01
       E  2.25377e+00 -3.29797e+01 -2.91867e+01
       E -3.01566e+01  4.53170e+01  8.43154e+01
3
# CELL(abcABC): 1322.94304  1322.94304  1322.94304    90.00000    90.00000    90.00000  Step:        1200  Bead:      21 positions{angstrom}  cell{angstrom}
       E -1.07052e+01  2.10108e+01 -6.57878e+01
       E  4.33449e+01 -2.44053e+01 -2.66309e+01
       E -2.15968e+01  5.88535e+01  2.45810e+01
3
# CELL(abcABC): 1322.94304  1322.94304  1322.94304    90.00000    90.00000    90.00000  Step:        1300  Bead:      21 positions{angstrom}  cell{angstrom}
       E  1.06818e+01  2.98411e+01 -8.18038e+01
       E  3.83684e+01 -1.99608e+01 -5.18636e+01
       E  1.25747e+01  2.73234e+01  9.75483e-01
3
# CELL(abcABC): 1322.94304  1322.94304  1322.94304    90.00000    90.00000    90.00000  Step:        1400  Bead:      21 positions{angstrom}  cell{angstrom}
       E  5.19191e+00  3.99108e+01 -5.63095e+01
       E  6.13626e+00 -1.02479e+01 -3.95962e+01
       E  9.79392e+00 -9.86215e+00  1.74374e+01
3
# CELL(abcABC): 1322.94304  1322.94304  1322.94304    90.00000    90.00000    90.00000  Step:        1500  Bead:      21 positions{angstrom}  cell{angstrom}
       E  7.50071e-01  5.73972e+01 -2.69349e+01
       E -3.64513e+01  3.23431e+01 -1.62010e+01
       E -1.58541e+01 -2.65308e+00  2.63237e+01
3
# CELL(abcABC): 1322.94304  1322.94304  1322.94304    90.00000    90.00000    90.00000  Step:        1600  Bead:      21 positions{angstrom}  cell{angstrom}
       E -2.19440e+01  2.85259e+01 -2.66337e+01
       E -4.38392e+01  1.86186e+01 -1.03958e+00
       E  2.08303e+01  2.66752e+01 -2.37263e+00
3
# CELL(abcABC): 1322.94304  1322.94304  1322.94304    90.00000    90.00000    90.00000  Step:        1700  Bead:      21 positions{angstrom}  cell{angstrom}
       E -5.28182e+00  5.81262e+01 -1.59385e+01
       E -1.81713e+01  3.07962e+01  3.63016e+01
       E  6.44508e+00  7.51164e+01  1.41929e+01
3
# CELL(abcABC): 1322.94304  1322.94304  1322.94304    90.00000    90.00000    90.00000  Step:        1800  Bead:      21 positions{angstrom}  cell{angstrom}
       E -4.13160e+00  5.03798e+01  3.49291e+01
       E -5.27309e+01  3.55847e+01  2.24445e+01
       E -4.14152e+01  5.18924e+01  2.40747e+01
3
# CELL(abcABC): 1322.94304  1322.94304  1322.94304    90.00000    90.00000    90.00000  Step:        1900  Bead:      21 positions{angstrom}  cell{angstrom}
       E  1.82074e+01  9.79675e+00  4.12814e+01
       E -3.86853e+01  5.00759e+01  2.12088e+01
       E -9.55714e+01  4.34014e+01  1.28299e+01
3
# CELL(abcABC): 1322.94304  1322.94304  1322.94304    90.00000    90.00000    90.00000  Step:        2000  Bead:      21 positions{angstrom}  cell{angstrom}
       E -3.04056e+01 -3.43498e+01  5.51583e+01
       E -6.15646e+01  1.61965e+01  4.02951e+01
       E -7.11010e+01  7.06755e+01  2.75786e+00
3
# CELL(abcABC): 1322.94304  1322.94304  1322.94304    90.00000    90.00000    90.00000  Step:        2100  Bead:      21 positions{angstrom}  cell{angstrom}
       E -4.51893e+01 -3.26559e+01  5.16124e+01
       E -3.48172e+01  2.62327e+00  1.44830e+01
       E -8.74374e+01  9.82415e+01  3.23327e+01
3
# CELL(abcABC): 1322.94304  1322.94304  1322.94304    90.00000    90.00000    90.00000  Step:        2200  Bead:      21 positions{angstrom}  cell{angstrom}
       E  3.91523e+00 -4.96029e+01  2.82199e+01
       E -3.19299e+01 -3.54617e+01 -6.89326e+00
       E -7.31248e+01  5.46294e+01 -2.52565e+00
3
# CELL(abcABC): 1322.94304  1322.94304  1322.94304    90.00000    90.00000    90.00000  Step:        2300  Bead:      21 positions{angstrom}  cell{angstrom}
       E -5.35489e+01 -4.46217e+01  7.18549e+01
       E -4.52494e+00 -2.41700e+01 -9.39841e+00
       E -3.96387e+01  3.34196e+01 -1.86610e+01
3
# CELL(abcABC): 1322.94304  1322.94304  1322.94304    90.00000    90.00000    90.00000  Step:        2400  Bead:      21 positions{angstrom}  cell{angstrom}
       E -2.95280e+01 -1.93349e+01  2.36131e+01
       E -1.16594e+01 -1.66469e+01 -1.04670e+01
       E -3.89144e+00  1.18363e+01  2.08188e+01
3
# CELL(abcABC): 1322.94304  1322.94304  1322.94304    90.00000    90.00000    90.00000  Step:        2500  Bead:      21 positions{angstrom}  cell{angstrom}
       E -3.42779e+01 -2.50189e+01  9.39065e+00
       E -2.70287e+01 -4.56164e+01 -3.10240e+01
       E  1.00768e+01  1.01042e+00  5.00814e+01
3
# CELL(abcABC): 1322.94304  1322.94304  1322.94304    90.00000    90.00000    90.00000  Step:        2600  Bead:      21 positions{angstrom}  cell{angstrom}
       E -4.93118e+01 -5.05639e+00  2.69728e+01
       E -5.08760e+01 -3.74430e+01 -4.85445e+01
       E  1.39868e+01  3.62261e+00  7.17819e+01
3
# CELL(abcABC): 1322.94304  1322.94304  1322.94304    90.00000    90.00000    90.00000  Step:        2700  Bead:      21 positions{angstrom}  cell{angstrom}
       E -7.10631e+01 -1.42432e+00  6.50823e+01
       E -6.30251e+01 -4.11444e+01 -3.29962e+01
       E  3.17564e+01 -4.60014e+01  6.48517e+01
3
# CELL(abcABC): 1322.94304  1322.94304  1322.94304    90.00000    90.00000    90.00000  Step:        2800  Bead:      21 positions{angstrom}  cell{angstrom}
       E -5.05699e+01 -7.67661e+00  6.64789e+01
       E -9.52371e+01 -5.02878e+01 -1.20086e+01
       E  2.49591e+01 -1.94150e+01  2.89049e+01
3
# CELL(abcABC): 1322.94304  1322.94304  1322.94304    90.00000    90.00000    90.00000  Step:        2900  Bead:      21 positions{angstrom}  cell{angstrom}
       E -9.01802e+01 -2.07167e+01  4.77077e+01
       E -9.44179e+01 -7.73230e+01  3.27631e+01
       E  1.71652e+00 -3.29228e+00  8.15345e+00
3
# CELL(abcABC): 1322.94304  1322.94304  1322.94304    90.00000    90.00000    90.00000  Step:        3000  Bead:      21 positions{angstrom}  cell{angstrom}
       E -4.91450e+01 -4.02107e+01  8.73511e+01
       E -7.30884e+01 -2.83012e+01  2.33141e+01
       E  2.94854e+01  2.44334e+01  9.81318e+00
3
# CELL(abcABC): 1322.94304  1322.94304  1322.94304    90.00000    90.00000    90.00000  Step:        3100  Bead:      21 positions{angstrom}  cell{angstrom}
       E -8.49692e+01 -2.68377e+01  8.02280e+01
       E -1.04162e+02 -6.24449e+01  3.54226e+01
       E  5.43279e+01  7.35668e+01  2.31238e+01
3
# CELL(abcABC): 1322.94304  1322.94304  1322.94304    90.00000    90.00000    90.00000  Step:        3200  Bead:      21 positions{angstrom}  cell{angstrom}
       E -7.80395e+01 -1.10310e+01  2.89635e+01
       E -9.19820e+01 -3.08672e+01  4.56347e+01
       E  4.78547e+01  6.99367e+01  7.83266e+00
3
# CELL(abcABC): 1322.94304  1322.94304  1322.94304    90.00000    90.00000    90.00000  Step:        3300  Bead:      21 positions{angstrom}  cell{angstrom}
       E -5.49181e+01 -5.19141e-01  4.66409e+01
       E -9.58966e+01 -2.98178e+01  5.52101e+01
       E  1.02686e+01  7.52645e+01 -2.77821e+01
3
# CELL(abcABC): 1322.94304  1322.94304  1322.94304    90.00000    90.00000    90.00000  Step:        3400  Bead:      21 positions{angstrom}  cell{angstrom}
       E -1.05764e+02 -3.34160e+00  8.36560e+01
       E -7.32779e+01 -3.11774e+01  4.91513e+01
       E  2.99191e+01  5.60932e+01  3.19871e+01
3
# CELL(abcABC): 1322.94304  1322.94304  1322.94304    90.00000    90.00000    90.00000  Step:        3500  Bead:      21 positions{angstrom}  cell{angstrom}
       E -1.20358e+02  8.55897e-02  6.29067e+01
       E -2.67136e+01 -6.63791e+00  3.09576e+01
       E  2.39480e+01  4.97986e+01  2.54215e+01
3
# CELL(abcABC): 1322.94304  1322.94304  1322.94304    90.00000    90.00000    90.00000  Step:        3600  Bead:      21 positions{angstrom}  cell{angstrom}
       E -1.06280e+02 -1.44900e+01  4.11264e+01
       E -1.84843e+01 -4.75780e+01  5.58059e+01
       E -2.84750e+01  3.38506e+01  1.92104e+01
3
# CELL(abcABC): 1322.94304  1322.94304  1322.94304    90.00000    90.00000    90.00000  Step:        3700  Bead:      21 positions{angstrom}  cell{angstrom}
       E -8.29284e+01  7.83356e+00 -2.88083e+01
       E -1.00213e+01 -3.96386e+01  1.16865e+01
       E -3.59185e+01  1.56257e+01  1.58203e+01
3
# CELL(abcABC): 1322.94304  1322.94304  1322.94304    90.00000    90.00000    90.00000  Step:        3800  Bead:      21 positions{angstrom}  cell{angstrom}
       E -7.46466e+01 -1.70192e+01 -1.82513e+01
       E  8.62994e+00 -3.41383e+01  4.03904e+01
       E -5.69336e+01  1.23303e+01 -1.25596e+01
3
# CELL(abcABC): 1322.94304  1322.94304  1322.94304    90.00000    90.00000    90.00000  Step:        3900  Bead:      21 positions{angstrom}  cell{angstrom}
       E -9.72427e+01 -1.63825e+01 -4.71466e+01
       E -2.40659e+01 -4.10087e+01  4.36144e+00
       E -1.69713e+01 -1.27393e+01  1.10923e+01
3
# CELL(abcABC): 1322.94304  1322.94304  1322.94304    90.00000    90.00000    90.00000  Step:        4000  Bead:      21 positions{angstrom}  cell{angstrom}
       E -1.17946e+02  2.33094e+01 -6.81628e+01
       E -3.82021e+01 -1.77584e+01  2.53704e+01
       E  5.89224e-02  1.27378e+01  4.62582e+01
3
# CELL(abcABC): 1322.94304  1322.94304  1322.94304    90.00000    90.00000    90.00000  Step:        4100  Bead:      21 positions{angstrom}  cell{angstrom}
       E -1.21054e+02  2.84531e+01 -9.87195e+01
       E -5.41192e+01 -9.07921e+00 -3.48054e+01
       E -7.88502e+00 -1.68422e+01  3.84947e+01
3
# CELL(abcABC): 1322.94304  1322.94304  1322.94304    90.00000    90.00000    90.00000  Step:        4200  Bead:      21 positions{angstrom}  cell{angstrom}
       E -1.07517e+02  7.97968e-01 -1.04147e+02
       E -6.17912e+01  1.17849e+01  8.93238e-01
       E  2.67913e+01  4.75581e+00  3.11564e+01
3
# CELL(abcABC): 1322.94304  1322.94304  1322.94304    90.00000    90.00000    90.00000  Step:        4300  Bead:      21 positions{angstrom}  cell{angstrom}
       E -4.17830e+01  2.40484e+01 -4.85849e+01
       E -2.39988e+01  1.19374e+01  3.64621e+00
       E  2.21987e+01 -7.13874e+00  3.78533e+01
3
# CELL(abcABC): 1322.94304  1322.94304  1322.94304    90.00000    90.00000    90.00000  Step:        4400  Bead:      21 positions{angstrom}  cell{angstrom}
       E -4.19535e+01  2.56004e+01 -4.49355e+01
       E -2.69473e+01  5.02236e+01 -4.07339e+01
       E  5.93318e+01 -5.27626e+01  1.45119e-01
3
# CELL(abcABC): 1322.94304  1322.94304  1322.94304    90.00000    90.00000    90.00000  Step:        4500  Bead:      21 positions{angstrom}  cell{angstrom}
       E -5.90999e+01 -1.80692e+00 -5.69320e+01
       E -2.67871e+01  7.89922e+01 -3.11486e+01
       E  2.61073e+01 -3.52592e+01  2.90783e+01
3
# CELL(abcABC): 1322.94304  1322.94304  1322.94304    90.00000    90.00000    90.00000  Step:        4600  Bead:      21 positions{angstrom}  cell{angstrom}
       E -5.55192e+01  3.24367e+01 -5.77924e+01
       E -3.63813e+01  9.58055e+01  3.44472e+00
       E -4.99893e+00 -2.85989e+00  1.15931e+00
3
# CELL(abcABC): 1322.94304  1322.94304  1322.94304    90.00000    90.00000    90.00000  Step:        4700  Bead:      21 positions{angstrom}  cell{angstrom}
       E -2.76308e+01  4.10521e+01 -7.60523e+01
       E -4.54661e+01  5.70989e+01 -1.52858e+01
       E -9.76812e+00 -4.52045e+01  6.55434e+00
3
# CELL(abcABC): 1322.94304  1322.94304  1322.94304    90.00000    90.00000    90.00000  Step:        4800  Bead:      21 positions{angstrom}  cell{angstrom}
       E -3.21508e+01  1.19964e+01 -5.92779e+01
       E -4.36389e+01  1.79553e+01 -3.66422e+00
       E  2.37929e+01 -1.85662e+01  3.01673e+01
3
# CELL(abcABC): 1322.94304  1322.94304  1322.94304    90.00000    90.00000    90.00000  Step:        4900  Bead:      21 positions{angstrom}  cell{angstrom}
       E  2.68752e+01  1.39898e+01 -7.44821e+00
       E -2.83906e+01 -7.02560e+00 -2.14194e+01
       E -4.13986e+00 -5.04286e+01  8.25363e+00
3
# CELL(abcABC): 1322.94304  1322.94304  1322.94304    90.00000    90.00000    90.00000  Step:        5000  Bead:      21 positions{angstrom}  cell{angstrom}
       E  3.67817e+01  4.95135e+00  2.26546e+01
       E -5.38477e+01 -1.95716e+01 -3.17491e+01
       E  4.93643e+00 -1.13316e+01 -3.26121e+01
3
# CELL(abcABC): 1322.94304  1322.94304  1322.94304    90.00000    90.00000    90.00000  Step:        5100  Bead:      21 positions{angstrom}  cell{angstrom}
       E  1.31537e+01  2.74918e+01  3.04515e+01
       E -5.72001e+01 -4.97360e+00 -3.02302e+01
       E  1.25473e+01 -1.00365e+01 -5.35214e+01
3
# CELL(abcABC): 1322.94304  1322.94304  1322.94304    90.00000    90.00000    90.00000  Step:        5200  Bead:      21 positions{angstrom}  cell{angstrom}
       E -4.54309e+01  2.73835e+00  2.76981e+01
       E -4.06363e+01  1.24594e+01 -4.97831e+01
       E -2.06629e+00  6.85659e+00 -9.19220e+00
3
# CELL(abcABC): 1322.94304  1322.94304  1322.94304    90.00000    90.00000    90.00000  Step:        5300  Bead:      21 positions{angstrom}  cell{angstrom}
       E  4.64885e+00 -1.08243e+01  2.20907e+01
       E -3.98235e+00  3.27163e+01 -2.49754e+01
       E -4.96155e+01  3.73938e+01  7.55529e+00
3
# CELL(abcABC): 1322.94304  1322.94304  1322.94304    90.00000    90.00000    90.00000  Step:        5400  Bead:      21 positions{angstrom}  cell{angstrom}
       E  1.31472e+01 -1.02020e+00 -4.61275e-01
       E  6.37526e+00  3.43880e-01  1.25958e+01
       E -1.69795e+01  4.03465e+01  3.48912e+01
3
# CELL(abcABC): 1322.94304  1322.94304  1322.94304    90.00000    90.00000    90.00000  Step:        5500  Bead:      21 positions{angstrom}  cell{angstrom}
       E  6.24904e+01 -2.91869e+01 -4.66095e+01
       E -3.81790e+01  2.72832e+01 -6.82658e+00
       E -2.18687e+01  4.41180e+00  4.73633e+01
3
# CELL(abcABC): 1322.94304  1322.94304  1322.94304    90.00000    90.00000    90.00000  Step:        5600  Bead:      21 positions{angstrom}  cell{angstrom}
       E  1.66451e+01  7.31501e+00 -3.03599e+01
       E -5.17724e+01  2.53139e+01  1.24587e+01
       E -4.88775e+01  1.48467e+01  4.81202e+01
3
# CELL(abcABC): 1322.94304  1322.94304  1322.94304    90.00000    90.00000    90.00000  Step:        5700  Bead:      21 positions{angstrom}  cell{angstrom}
       E  3.27017e+01 -2.83716e+01 -5.17064e+01
       E -5.61487e+01  1.59918e+01 -1.69687e+01
       E -4.40982e+01 -7.18446e+00 -1.43791e+01
3
# CELL(abcABC): 1322.94304  1322.94304  1322.94304    90.00000    90.00000    90.00000  Step:        5800  Bead:      21 positions{angstrom}  cell{angstrom}
       E  2.19972e+01  1.08252e+01 -3.42518e+01
       E -1.94225e+01 -4.50941e+00 -1.10150e+01
       E -4.22316e+01  2.66359e+01  4.60004e+00
3
# CELL(abcABC): 1322.94304  1322.94304  1322.94304    90.00000    90.00000    90.00000  Step:        5900  Bead:      21 positions{angstrom}  cell{angstrom}
       E  3.18344e+01  3.28638e+01 -1.66675e+01
       E -3.16295e+01  1.57479e+01  1.23318e+01
       E -1.66819e+01 -4.43380e+01 -2.40131e+01
3
# CELL(abcABC): 1322.94304  1322.94304  1322.94304    90.00000    90.00000    90.00000  Step:        6000  Bead:      21 positions{angstrom}  cell{angstrom}
       E  3.13253e+00 -1.97250e+01 -1.48526e+01
       E  2.94773e+01 -5.07956e+00 -6.10894e-01
       E  1.59349e+01 -1.70913e+01 -1.15545e+01
3
# CELL(abcABC): 1322.94304  1322.94304  1322.94304    90.00000    90.00000    90.00000  Step:        6100  Bead:      21 positions{angstrom}  cell{angstrom}
       E  9.20920e-01 -2.74049e+01 -3.15474e+01
       E  6.11644e+01  3.49124e+01 -1.61944e+00
       E  5.08893e+00 -3.05700e+01  4.29862e+00
3
# CELL(abcABC): 1322.94304  1322.94304  1322.94304    90.00000    90.00000    90.00000  Step:        6200  Bead:      21 positions{angstrom}  cell{angstrom}
       E  6.94914e+00 -2.65964e+01 -1.21258e+02
       E  1.10845e+02  3.26939e+01  9.84146e+00
       E  2.61044e+01 -3.73950e+01  4.95614e+00
3
# CELL(abcABC): 1322.94304  1322.94304  1322.94304    90.00000    90.00000    90.00000  Step:        6300  Bead:      21 positions{angstrom}  cell{angstrom}
       E  3.35318e+01 -3.92083e+01 -1.28032e+02
       E  8.83132e+01 -6.84644e+00 -2.08328e+01
       E -5.34747e+00 -2.22288e+01  5.52437e+00
3
# CELL(abcABC): 1322.94304  1322.94304  1322.94304    90.00000    90.00000    90.00000  Step:        6400  Bead:      21 positions{angstrom}  cell{angstrom}
       E  7.73280e+01 -5.97077e+01 -1.41745e+02
       E  3.70802e+01 -3.33362e+01 -4.92121e+01
       E  1.90846e+01 -2.73728e+01 -2.75284e+01
3
# CELL(abcABC): 1322.94304  1322.94304  1322.94304    90.00000    90.00000    90.00000  Step:        6500  Bead:      21 positions{angstrom}  cell{angstrom}
       E  3.70900e+01 -6.43982e+01 -1.09480e+02
       E  2.89853e+01  4.45066e+01 -6.51780e+01
       E  4.87128e+01 -5.90184e+00  3.04456e+01
3
# CELL(abcABC): 1322.94304  1322.94304  1322.94304    90.00000    90.00000    90.00000  Step:        6600  Bead:      21 positions{angstrom}  cell{angstrom}
       E  6.06011e+00 -1.06103e+02 -8.30692e+01
       E  1.34118e+01 -7.99343e+00 -5.94257e+01
       E  1.98752e+01 -1.32721e+01  1.95988e+01
3
# CELL(abcABC): 1322.94304  1322.94304  1322.94304    90.00000    90.00000    90.00000  Step:        6700  Bead:      21 positions{angstrom}  cell{angstrom}
       E -1.05434e+01 -1.09920e+02 -8.38092e+01
       E  4.15531e+01  7.69356e+00 -3.08395e+01
       E  2.55316e+01 -1.40844e+01  2.88149e+01
3
# CELL(abcABC): 1322.94304  1322.94304  1322.94304    90.00000    90.00000    90.00000  Step:        6800  Bead:      21 positions{angstrom}  cell{angstrom}
       E  4.42497e+00 -1.23115e+02 -7.32796e+01
       E  6.57516e+01 -2.49295e+01 -1.89543e+01
       E  4.21078e+00 -2.33166e+01  1.76316e+00
3
# CELL(abcABC): 1322.94304  1322.94304  1322.94304    90.00000    90.00000    90.00000  Step:        6900  Bead:      21 positions{angstrom}  cell{angstrom}
       E  3.32467e+01 -6.60676e+01 -3.52687e+01
       E  5.66871e+01 -3.82041e+01 -2.00124e+01
       E -3.43830e+01  3.49858e+00 -2.75018e+01
3
# CELL(abcABC): 1322.94304  1322.94304  1322.94304    90.00000    90.00000    90.00000  Step:        7000  Bead:      21 positions{angstrom}  cell{angstrom}
       E  2.11467e+01 -3.90125e+01 -2.11107e+01
       E  5.25049e+01  2.16593e+01 -4.78444e+01
       E  4.21956e+01  3.62558e+00 -3.15617e+01
3
# CELL(abcABC): 1322.94304  1322.94304  1322.94304    90.00000    90.00000    90.00000  Step:        7100  Bead:      21 positions{angstrom}  cell{angstrom}
       E  5.78238e+01 -9.92871e-01 -1.60071e+01
       E  2.10241e+01  1.56970e+01  8.27257e+00
       E  3.59643e+01  1.02903e+01 -2.70676e+01
3
# CELL(abcABC): 1322.94304  1322.94304  1322.94304    90.00000    90.00000    90.00000  Step:        7200  Bead:      21 positions{angstrom}  cell{angstrom}
       E  2.42272e+01 -3.98034e+01 -5.34528e+01
       E -4.94368e+01  6.86769e+01  1.61607e+01
       E  1.00559e+02  3.60711e+01 -3.42490e+01
3
# CELL(abcABC): 1322.94304  1322.94304  1322.94304    90.00000    90.00000    90.00000  Step:        7300  Bead:      21 positions{angstrom}  cell{angstrom}
       E  5.04896e+01 -4.02837e+01 -3.62958e+01
       E -3.51686e+01  2.68036e+01  2.01092e+01
       E  5.15025e+01  1.98091e+01 -2.06717e+01
3
# CELL(abcABC): 1322.94304  1322.94304  1322.94304    90.00000    90.00000    90.00000  Step:        7400  Bead:      21 positions{angstrom}  cell{angstrom}
       E -1.79926e+01 -1.80265e+01 -3.77174e+01
       E -4.77679e+01 -3.78583e+00 -6.40629e+00
       E  5.63184e+01  5.37283e+01 -1.66809e+01
3
# CELL(abcABC): 1322.94304  1322.94304  1322.94304    90.00000    90.00000    90.00000  Step:        7500  Bead:      21 positions{angstrom}  cell{angstrom}
       E -2.47176e+01 -6.98119e+01 -6.09692e+01
       E -2.81350e+01 -2.44332e+01  5.06366e-01
       E  6.76157e+01  1.81349e+00  1.15430e+00
3
# CELL(abcABC): 1322.94304  1322.94304  1322.94304    90.00000    90.00000    90.00000  Step:        7600  Bead:      21 positions{angstrom}  cell{angstrom}
       E -6.84053e+00 -4.26516e+01 -5.68402e+01
       E -3.95553e+01 -5.19453e+01 -5.17987e+00
       E  3.61850e+01  2.75004e+01 -1.59534e+01
3
# CELL(abcABC): 1322.94304  1322.94304  1322.94304    90.00000    90.00000    90.00000  Step:        7700  Bead:      21 positions{angstrom}  cell{angstrom}
       E  3.80682e+00 -7.71647e+01 -3.33100e+01
       E -6.21835e+00 -3.52316e+01 -1.98820e+01
       E  6.76669e+01 -1.63071e+01 -2.19266e+01
3
# CELL(abcABC): 1322.94304  1322.94304  1322.94304    90.00000    90.00000    90.00000  Step:        7800  Bead:      21 positions{angstrom}  cell{angstrom}
       E  2.75316e+01 -8.29935e+01 -6.68664e+01
       E  1.38724e+01 -2.53900e+01 -2.39968e+01
       E  4.28882e+01  4.97644e+00 -1.37650e+01
3
# CELL(abcABC): 1322.94304  1322.94304  1322.94304    90.00000    90.00000    90.00000  Step:        7900  Bead:      21 positions{angstrom}  cell{angstrom}
       E  2.47130e+01 -6.91152e+01 -2.94969e+01
       E  2.95196e+00 -3.61767e+01 -6.23262e+01
       E -2.82447e-01 -5.15278e+00 -5.15529e+01
3
# CELL(abcABC): 1322.94304  1322.94304  1322.94304    90.00000    90.00000    90.00000  Step:        8000  Bead:      21 positions{angstrom}  cell{angstrom}
       E  2.99258e+01 -2.15681e+01 -4.47334e+00
       E -5.56025e+00  1.19629e+01 -3.47163e+01
       E  2.18283e+01  5.25079e+00 -5.08013e+01
3
# CELL(abcABC): 1322.94304  1322.94304  1322.94304    90.00000    90.00000    90.00000  Step:        8100  Bead:      21 positions{angstrom}  cell{angstrom}
       E -3.21885e-01  3.80092e+01 -1.33010e+01
       E -5.67814e+01  8.61397e+00 -2.70099e+01
       E  1.24751e+01 -7.72784e+00 -4.28869e+00
3
# CELL(abcABC): 1322.94304  1322.94304  1322.94304    90.00000    90.00000    90.00000  Step:        8200  Bead:      21 positions{angstrom}  cell{angstrom}
       E -2.08069e+01  3.30032e+01 -3.54908e+01
       E -9.94928e+00 -1.46709e+01 -3.17534e+01
       E  2.84669e+00 -3.95679e+01  2.36065e+01
3
# CELL(abcABC): 1322.94304  1322.94304  1322.94304    90.00000    90.00000    90.00000  Step:        8300  Bead:      21 positions{angstrom}  cell{angstrom}
       E  5.94907e+00  5.27596e+01  2.56606e+01
       E -1.35873e+01  7.43169e+00 -1.57454e+01
       E -5.59626e+00 -5.98266e+01  5.09038e+01
3
# CELL(abcABC): 1322.94304  1322.94304  1322.94304    90.00000    90.00000    90.00000  Step:        8400  Bead:      21 positions{angstrom}  cell{angstrom}
       E -3.72917e+01  3.89977e+01 -3.23821e+00
       E  8.77276e+00  1.18682e+01 -2.31919e+01
       E -7.15320e+00 -5.74288e+01  3.70119e+01
3
# CELL(abcABC): 1322.94304  1322.94304  1322.94304    90.00000    90.00000    90.00000  Step:        8500  Bead:      21 positions{angstrom}  cell{angstrom}
       E -7.88534e+00 -2.72729e+01 -2.21763e+01
       E  1.25569e+01  2.17392e+01  1.63891e+01
       E  6.71594e+00 -3.55256e+01  6.57595e+01
3
# CELL(abcABC): 1322.94304  1322.94304  1322.94304    90.00000    90.00000    90.00000  Step:        8600  Bead:      21 positions{angstrom}  cell{angstrom}
       E -2.88648e+00 -4.01362e+01 -1.07389e+01
       E  1.59364e+01  6.83438e+00 -1.15964e+01
       E  5.49303e+01 -1.94229e+01  6.11403e+01
3
# CELL(abcABC): 1322.94304  1322.94304  1322.94304    90.00000    90.00000    90.00000  Step:        8700  Bead:      21 positions{angstrom}  cell{angstrom}
       E -9.56419e+00  2.56380e+00  1.75358e+01
       E  3.09547e+01 -9.00010e+00  1.49650e+01
       E  4.30985e+01 -9.82313e-01  3.25772e+01
3
# CELL(abcABC): 1322.94304  1322.94304  1322.94304    90.00000    90.00000    90.00000  Step:        8800  Bead:      21 positions{angstrom}  cell{angstrom}
       E -3.83786e+01  4.59632e+01 -7.17991e+00
       E  1.64062e+00 -2.01103e+00 -1.02505e+00
       E  6.78702e+01 -6.90899e+01  3.87337e+00
3
# CELL(abcABC): 1322.94304  1322.94304  1322.94304    90.00000    90.00000    90.00000  Step:        8900  Bead:      21 positions{angstrom}  cell{angstrom}
       E -6.21957e+01  2.86018e+01  3.45303e+01
       E  1.67681e+01 -1.66521e+01  1.64931e+01
       E  7.44603e+01 -5.41395e+01 -3.97718e+00
3
# CELL(abcABC): 1322.94304  1322.94304  1322.94304    90.00000    90.00000    90.00000  Step:        9000  Bead:      21 positions{angstrom}  cell{angstrom}
       E -4.83664e+01  1.53515e+01  4.30851e+01
       E  1.06054e+01  7.05233e+00  4.83024e+01
       E  1.23685e+01 -4.47654e+01  3.23387e+01
3
# CELL(abcABC): 1322.94304  1322.94304  1322.94304    90.00000    90.00000    90.00000  Step:        9100  Bead:      21 positions{angstrom}  cell{angstrom}
       E -2.45436e+01  3.25321e+01 -1.04097e+01
       E  3.26335e+01 -3.27369e+01  5.91985e+01
       E  1.21288e+01 -2.47962e+01 -2.21985e+01
3
# CELL(abcABC): 1322.94304  1322.94304  1322.94304    90.00000    90.00000    90.00000  Step:        9200  Bead:      21 positions{angstrom}  cell{angstrom}
       E -4.43210e+00  1.87619e+01 -5.22813e+00
       E -7.24141e+00  5.87798e+00  3.87798e+01
       E  5.06942e+01 -4.11267e+01 -1.51122e+01
3
# CELL(abcABC): 1322.94304  1322.94304  1322.94304    90.00000    90.00000    90.00000  Step:        9300  Bead:      21 positions{angstrom}  cell{angstrom}
       E  5.54512e+00 -6.18987e-01 -1.91335e+01
       E -5.88081e+01 -2.37280e+01  2.71312e+01
       E  1.18666e+01 -2.35637e+01 -2.09047e+00
3
# CELL(abcABC): 1322.94304  1322.94304  1322.94304    90.00000    90.00000    90.00000  Step:        9400  Bead:      21 positions{angstrom}  cell{angstrom}
       E  1.15240e+01  3.09697e+01 -5.56828e+01
       E -3.42125e+01  1.07389e+01  5.15910e+01
       E -1.75094e+01 -3.90483e+01  6.44963e+00
3
# CELL(abcABC): 1322.94304  1322.94304  1322.94304    90.00000    90.00000    90.00000  Step:        9500  Bead:      21 positions{angstrom}  cell{angstrom}
       E  2.35570e+01  3.14533e+01 -3.66733e+01
       E  2.13634e+00 -6.53127e+01  3.72704e+01
       E  1.51773e+01 -3.95685e+01  2.46963e+01
3
# CELL(abcABC): 1322.94304  1322.94304  1322.94304    90.00000    90.00000    90.00000  Step:        9600  Bead:      21 positions{angstrom}  cell{angstrom}
       E  1.57837e+01  1.29838e+01 -4.65567e+01
       E  4.46946e+01 -1.05977e+02  2.11703e+01
       E  5.03494e+00 -1.42275e+01 -5.02938e+00
3
# CELL(abcABC): 1322.94304  1322.94304  1322.94304    90.00000    90.00000    90.00000  Step:        9700  Bead:      21 positions{angstrom}  cell{angstrom}
       E -4.82811e+00 -4.71962e+01 -2.74602e+01
       E  4.44516e+00 -9.83939e+01  1.16689e+01
       E -5.97514e+00  3.67252e+00 -5.91932e+00
3
# CELL(abcABC): 1322.94304  1322.94304  1322.94304    90.00000    90.00000    90.00000  Step:        9800  Bead:      21 positions{angstrom}  cell{angstrom}
       E -2.80342e+01 -6.59927e+01 -2.30633e+01
       E  1.45904e+01 -6.28331e+01  2.07294e+01
       E -1.45121e+01 -3.26750e+01  3.28570e+01
3