3
# CELL(abcABC): 1322.94304  1322.94304  1322.94304    90.00000    90.00000    90.00000  Step:           0  Bead:      20 positions{angstrom}  cell{angstrom}
       E  0.00000e+00  0.00000e+00  0.00000e+00
       E  0.00000e+00  0.00000e+00  0.00000e+00
       E  0.00000e+00  0.00000e+00  0.00000e+00
3
# CELL(abcABC): 1322.94304  1322.94304  1322.94304    90.00000    90.00000    90.00000  Step:         100  Bead:      20 positions{angstrom}  cell{angstrom}
       E  1.08808e+01 -9.04724e+00 -2.55290e+01
       E -2.16803e+01 -5.68069e+01 -1.79999e+01
       E -1.21552e+01  1.26975e+01 -1.16675e+01
3
# CELL(abcABC): 1322.94304  1322.94304  1322.94304    90.00000    90.00000    90.00000  Step:         200  Bead:      20 positions{angstrom}  cell{angstrom}
       E  2.07444e+01 -1.11844e+01 -3.35691e+00
       E  1.98418e+01 -3.89942e+01  2.77672e+00
       E  3.01031e+01  5.13093e+01 -1.37501e+01
3
# CELL(abcABC): 1322.94304  1322.94304  1322.94304    90.00000    90.00000    90.00000  Step:         300  Bead:      20 positions{angstrom}  cell{angstrom}
       E  1.92221e+01  4.54871e+00  4.34148e+01
       E  1.35443e+01 -2.82411e+00  2.86687e+01
       E -1.74667e+01  4.64826e+01 -5.12025e+01
3
# CELL(abcABC): 1322.94304  1322.94304  1322.94304    90.00000    90.00000    90.00000  Step:         400  Bead:      20 positions{angstrom}  cell{angstrom}
       E -3.88133e+01  2.07472e+01 -1.57236e+01
       E  2.82836e+01  1.07818e+01 -2.32750e+01
       E -2.43871e+01  3.08629e+01 -1.71939e+00
3
# CELL(abcABC): 1322.94304  1322.94304  1322.94304    90.00000    90.00000    90.00000  Step:         500  Bead:      20 positions{angstrom}  cell{angstrom}
       E -6.49881e+00 -1.62962e+01 -3.13407e+01
       E  1.51492e+01 -1.10413e+01  1.20608e+01
       E -3.02280e+00  5.41278e+00  2.97837e+01
3
# CELL(abcABC): 1322.94304  1322.94304  1322.94304    90.00000    90.00000    90.00000  Step:         600  Bead:      20 positions{angstrom}  cell{angstrom}
       E -4.93831e-01  1.25211e+01 -3.32784e+01
       E  2.48179e+01 -4.47282e-01 -2.25583e+01
       E -2.33814e+01 -2.61471e+01  3.08084e+01
3
# CELL(abcABC): 1322.94304  1322.94304  1322.94304    90.00000    90.00000    90.00000  Step:         700  Bead:      20 positions{angstrom}  cell{angstrom}
       E  1.34888e+01  1.66160e+01 -2.37917e+01
       E  4.16441e+01  1.10691e+01 -2.20244e+00
       E -8.82764e+00  1.61050e+01  5.03321e+01
3
# CELL(abcABC): 1322.94304  1322.94304  1322.94304    90.00000    90.00000    90.00000  Step:         800  Bead:      20 positions{angstrom}  cell{angstrom}
       E -8.00568e+00  1.84262e+00 -1.77142e+01
       E  5.27144e+01 -6.49065e+00 -3.82335e-01
       E -2.75175e+01 -2.31203e+01  9.29834e+01
3
# CELL(abcABC): 1322.94304  1322.94304  1322.94304    90.00000    90.00000    90.00000  Step:         900  Bead:      20 positions{angstrom}  cell{angstrom}
       E -1.81597e+01  2.64667e+01 -6.48387e+01
       E  2.19348e+01 -1.49081e+01 -2.51739e+01
       E -4.99414e+01 -2.23855e+01  1.00510e+02
3
# CELL(abcABC): 1322.94304  1322.94304  1322.94304    90.00000    90.00000    90.00000  Step:        1000  Bead:      20 positions{angstrom}  cell{angstrom}
       E  2.76743e+01  2.71722e+01 -4.69954e+01
       E -1.19394e+01 -1.45735e+01 -3.65143e+01
       E -4.16456e+01 -9.41365e+00  8.19520e+01
3
# CELL(abcABC): 1322.94304  1322.94304  1322.94304    90.00000    90.00000    90.00000  Step:        1100  Bead:      20 positions{angstrom}  cell{angstrom}
       E -1.48181e+00 -1.29043e+01 -5.54845e+01
       E  1.07338e+01 -3.64390e+00 -3.79501e+01
       E -2.61164e+01  4.23128e+01  7.69568e+01
3
# CELL(abcABC): 1322.94304  1322.94304  1322.94304    90.00000    90.00000    90.00000  Step:        1200  Bead:      20 positions{angstrom}  cell{angstrom}
       E -1.65300e+01  3.32502e+01 -6.82107e+01
       E  3.05599e+01 -3.55579e+01 -9.15340e+00
       E -5.65193e+00  4.61159e+01  9.76610e+00
3
# CELL(abcABC): 1322.94304  1322.94304  1322.94304    90.00000    90.00000    90.00000  Step:        1300  Bead:      20 positions{angstrom}  cell{angstrom}
       E -2.94583e+01  4.43411e+01 -8.33553e+01
       E  4.35512e+01 -3.50363e+01 -4.01124e+01
       E  7.80255e+00  1.74888e+01  1.35399e+01
3
# CELL(abcABC): 1322.94304  1322.94304  1322.94304    90.00000    90.00000    90.00000  Step:        1400  Bead:      20 positions{angstrom}  cell{angstrom}
       E -4.58524e+00  3.13837e+01 -6.11435e+01
       E  1.79686e+01 -4.06208e+00 -3.56398e+01
       E  1.07189e+01  4.49752e+00  1.82967e+01
3
# CELL(abcABC): 1322.94304  1322.94304  1322.94304    90.00000    90.00000    90.00000  Step:        1500  Bead:      20 positions{angstrom}  cell{angstrom}
       E -7.42447e+00  5.35667e+01 -2.72994e+01
       E -2.62698e+01  1.50036e+01 -1.51405e+01
       E -2.65994e+01  2.58474e+00  2.66395e+01
3
# CELL(abcABC): 1322.94304  1322.94304  1322.94304    90.00000    90.00000    90.00000  Step:        1600  Bead:      20 positions{angstrom}  cell{angstrom}
       E -1.35274e+01  1.64150e+01 -2.32069e+01
       E -3.28617e+01  1.03898e+01 -7.96963e+00
       E  2.45863e+01  2.57545e+01 -5.50438e+00
3
# CELL(abcABC): 1322.94304  1322.94304  1322.94304    90.00000    90.00000    90.00000  Step:        1700  Bead:      20 positions{angstrom}  cell{angstrom}
       E -6.33476e+00  5.79069e+01 -6.21016e+00
       E -3.74468e+01  2.26071e+01  2.94254e+01
       E -1.49328e+01  6.87962e+01  2.74784e+01
3
# CELL(abcABC): 1322.94304  1322.94304  1322.94304    90.00000    90.00000    90.00000  Step:        1800  Bead:      20 positions{angstrom}  cell{angstrom}
       E  3.47084e+00  4.72395e+01  3.93241e+01
       E -6.07573e+01  5.69134e+01  2.12618e+01
       E -4.18806e+01  5.43932e+01  3.66236e+01
3
# CELL(abcABC): 1322.94304  1322.94304  1322.94304    90.00000    90.00000    90.00000  Step:        1900  Bead:      20 positions{angstrom}  cell{angstrom}
       E  1.52153e+01  4.91267e+00  3.92344e+01
       E -4.88584e+01  2.71486e+01  2.88051e+01
       E -1.01780e+02  4.41822e+01  2.92168e+00
3
# CELL(abcABC): 1322.94304  1322.94304  1322.94304    90.00000    90.00000    90.00000  Step:        2000  Bead:      20 positions{angstrom}  cell{angstrom}
       E -2.09832e+01 -6.16705e+01  4.20985e+01
       E -6.26233e+01 -3.12766e-01  4.02547e+01
       E -7.14600e+01  6.57663e+01  1.03895e+01
3
# CELL(abcABC): 1322.94304  1322.94304  1322.94304    90.00000    90.00000    90.00000  Step:        2100  Bead:      20 positions{angstrom}  cell{angstrom}
       E -4.11279e+01 -3.91123e+01  4.63822e+01
       E -5.52198e+01  2.84451e+00  1.46321e+01
       E -9.30789e+01  1.09130e+02  3.86815e+01
3
# CELL(abcABC): 1322.94304  1322.94304  1322.94304    90.00000    90.00000    90.00000  Step:        2200  Bead:      20 positions{angstrom}  cell{angstrom}
       E -1.36244e+01 -5.05262e+01  5.17459e+01
       E -2.34296e+01 -5.22846e+01 -2.36938e+00
       E -7.88957e+01  6.89949e+01 -3.99170e+00
3
# CELL(abcABC): 1322.94304  1322.94304  1322.94304    90.00000    90.00000    90.00000  Step:        2300  Bead:      20 positions{angstrom}  cell{angstrom}
       E -5.45886e+01 -3.72858e+01  5.42310e+01
       E -1.08976e+01 -2.85441e+01  1.23194e+01
       E -4.20244e+01  2.97512e+01  9.66605e+00
3
# CELL(abcABC): 1322.94304  1322.94304  1322.94304    90.00000    90.00000    90.00000  Step:        2400  Bead:      20 positions{angstrom}  cell{angstrom}
       E -4.66322e+01 -3.20475e+01  3.10061e+01
       E -2.90326e+01 -8.62825e+00 -8.75671e+00
       E -7.37996e+00  2.37952e+01  2.65826e+01
3
# CELL(abcABC): 1322.94304  1322.94304  1322.94304    90.00000    90.00000    90.00000  Step:        2500  Bead:      20 positions{angstrom}  cell{angstrom}
       E -4.75573e+01 -2.25687e+01  2.25882e+01
       E -2.69878e+01 -2.94667e+01 -1.97317e+01
       E  2.06416e+01 -5.28008e+00  3.95351e+01
3
# CELL(abcABC): 1322.94304  1322.94304  1322.94304    90.00000    90.00000    90.00000  Step:        2600  Bead:      20 positions{angstrom}  cell{angstrom}
       E -5.32726e+01 -7.43455e+00  3.68602e+01
       E -2.59882e+01 -4.96090e+01 -4.69839e+01
       E -2.87851e+00 -5.94575e+00  6.85608e+01
3
# CELL(abcABC): 1322.94304  1322.94304  1322.94304    90.00000    90.00000    90.00000  Step:        2700  Bead:      20 positions{angstrom}  cell{angstrom}
       E -4.79708e+01 -2.76123e+00  6.32732e+01
       E -7.31068e+01 -3.65760e+01 -2.31647e+01
       E  1.41221e+01 -2.04477e+01  4.35220e+01
3
# CELL(abcABC): 1322.94304  1322.94304  1322.94304    90.00000    90.00000    90.00000  Step:        2800  Bead:      20 positions{angstrom}  cell{angstrom}
       E -6.03666e+01 -6.65652e+00  7.37247e+01
       E -9.00503e+01 -6.01210e+01 -1.67516e+01
       E  3.76236e+00 -2.05076e+01  1.50858e+01
3
# CELL(abcABC): 1322.94304  1322.94304  1322.94304    90.00000    90.00000    90.00000  Step:        2900  Bead:      20 positions{angstrom}  cell{angstrom}
       E -9.76437e+01 -1.74842e+01  4.22709e+01
       E -1.07669e+02 -6.44627e+01  3.02135e+01
       E  7.66278e+00 -3.03960e+00 -1.18424e+00
3
# CELL(abcABC): 1322.94304  1322.94304  1322.94304    90.00000    90.00000    90.00000  Step:        3000  Bead:      20 positions{angstrom}  cell{angstrom}
       E -3.59510e+01 -3.45273e+01  6.19372e+01
       E -8.56270e+01 -5.86476e+01  2.03471e+01
       E  1.54552e+01  2.65078e+01  9.52013e+00
3
# CELL(abcABC): 1322.94304  1322.94304  1322.94304    90.00000    90.00000    90.00000  Step:        3100  Bead:      20 positions{angstrom}  cell{angstrom}
       E -7.31287e+01 -3.02980e+01  6.77434e+01
       E -8.31408e+01 -4.96873e+01  2.23511e+01
       E  6.57426e+01  5.10116e+01  3.34995e+01
3
# CELL(abcABC): 1322.94304  1322.94304  1322.94304    90.00000    90.00000    90.00000  Step:        3200  Bead:      20 positions{angstrom}  cell{angstrom}
       E -6.59815e+01  7.93586e+00  1.06642e+01
       E -1.07944e+02 -2.16127e+01  4.73845e+01
       E  5.89139e+01  7.74727e+01  2.20840e+01
3
# CELL(abcABC): 1322.94304  1322.94304  1322.94304    90.00000    90.00000    90.00000  Step:        3300  Bead:      20 positions{angstrom}  cell{angstrom}
       E -4.66269e+01 -7.99776e+00  5.12218e+01
       E -9.77302e+01 -4.65653e+01  5.89800e+01
       E  2.79347e+01  9.15818e+01 -1.50973e+01
3
# CELL(abcABC): 1322.94304  1322.94304  1322.94304    90.00000    90.00000    90.00000  Step:        3400  Bead:      20 positions{angstrom}  cell{angstrom}
       E -9.96889e+01 -7.17621e+00  8.19929e+01
       E -5.04592e+01 -2.87526e+01  3.12526e+01
       E  4.02817e+01  5.98308e+01  2.50011e+01
3
# CELL(abcABC): 1322.94304  1322.94304  1322.94304    90.00000    90.00000    90.00000  Step:        3500  Bead:      20 positions{angstrom}  cell{angstrom}
       E -1.26059e+02  1.45901e+01  6.44703e+01
       E -3.38318e+01 -7.36540e+00  3.98840e+01
       E  9.13611e+00  4.85790e+01  4.15029e+01
3
# CELL(abcABC): 1322.94304  1322.94304  1322.94304    90.00000    90.00000    90.00000  Step:        3600  Bead:      20 positions{angstrom}  cell{angstrom}
       E -9.40672e+01 -1.49042e+01  3.04360e+01
       E  4.36395e+00 -4.23340e+01  4.64733e+01
       E -5.47833e+00  4.00804e+01  2.79663e+01
3
# CELL(abcABC): 1322.94304  1322.94304  1322.94304    90.00000    90.00000    90.00000  Step:        3700  Bead:      20 positions{angstrom}  cell{angstrom}
       E -8.68520e+01 -6.21204e-01 -3.96136e+01
       E -8.25719e-01 -2.62832e+01  8.97403e+00
       E -5.71326e+01  9.18261e+00 -6.64409e+00
3
# CELL(abcABC): 1322.94304  1322.94304  1322.94304    90.00000    90.00000    90.00000  Step:        3800  Bead:      20 positions{angstrom}  cell{angstrom}
       E -8.49427e+01 -2.56367e+01 -1.80597e+01
       E  1.38120e+01 -4.10068e+01  3.84804e+01
       E -5.46384e+01  3.82429e+01 -1.40321e+01
3
# CELL(abcABC): 1322.94304  1322.94304  1322.94304    90.00000    90.00000    90.00000  Step:        3900  Bead:      20 positions{angstrom}  cell{angstrom}
       E -1.11499e+02 -7.76803e+00 -3.97395e+01
       E -2.97441e+01 -5.17563e+01  7.97584e+00
       E -1.76991e+01 -9.50324e+00  1.62945e+01
3
# CELL(abcABC): 1322.94304  1322.94304  1322.94304    90.00000    90.00000    90.00000  Step:        4000  Bead:      20 positions{angstrom}  cell{angstrom}
       E -1.35959e+02  3.03846e+01 -4.57287e+01
       E -3.87615e+01 -6.77440e+00  3.78240e+01
       E -1.06223e+01  1.64228e+01  4.30731e+01
3
# CELL(abcABC): 1322.94304  1322.94304  1322.94304    90.00000    90.00000    90.00000  Step:        4100  Bead:      20 positions{angstrom}  cell{angstrom}
       E -1.13982e+02  2.73085e+01 -8.65690e+01
       E -5.56080e+01  1.17410e+01 -1.79427e+01
       E  2.52835e+00 -1.40919e+01  3.32538e+01
3
# CELL(abcABC): 1322.94304  1322.94304  1322.94304    90.00000    90.00000    90.00000  Step:        4200  Bead:      20 positions{angstrom}  cell{angstrom}
       E -1.17694e+02  3.02613e+00 -1.19559e+02
       E -6.94880e+01  3.33966e+01  2.21671e+00
       E  1.12778e+01 -7.03000e-01  6.02782e+01
3
# CELL(abcABC): 1322.94304  1322.94304  1322.94304    90.00000    90.00000    90.00000  Step:        4300  Bead:      20 positions{angstrom}  cell{angstrom}
       E -3.60506e+01  2.97034e+01 -6.14635e+01
       E -2.96662e+01  1.26948e+01  1.20985e+01
       E  3.19535e+01 -1.47501e+01  2.40820e+01
3
# CELL(abcABC): 1322.94304  1322.94304  1322.94304    90.00000    90.00000    90.00000  Step:        4400  Bead:      20 positions{angstrom}  cell{angstrom}
       E -3.33693e+01  2.34913e+01 -3.34991e+01
       E -3.30140e+01  4.68239e+01 -3.75585e+01
       E  6.22085e+01 -5.00530e+01  1.07667e+01
3
# CELL(abcABC): 1322.94304  1322.94304  1322.94304    90.00000    90.00000    90.00000  Step:        4500  Bead:      20 positions{angstrom}  cell{angstrom}
       E -6.75341e+01 -1.86924e+00 -8.03698e+01
       E -3.04269e+01  7.56112e+01 -1.68739e+01
       E  2.47580e+01 -2.60012e+01  2.36414e+01
3
# CELL(abcABC): 1322.94304  1322.94304  1322.94304    90.00000    90.00000    90.00000  Step:        4600  Bead:      20 positions{angstrom}  cell{angstrom}
       E -5.49972e+01  1.89101e+01 -8.05931e+01
       E -3.02199e+01  1.20749e+02  1.07603e+01
       E -6.62909e+00  6.12903e+00 -7.18054e+00
3
# CELL(abcABC): 1322.94304  1322.94304  1322.94304    90.00000    90.00000    90.00000  Step:        4700  Bead:      20 positions{angstrom}  cell{angstrom}
       E -3.58888e+01  4.25476e+01 -4.15430e+01
       E -3.44612e+01  4.83702e+01 -1.15672e+01
       E -4.16181e+00 -1.92166e+01  8.06645e+00
3
# CELL(abcABC): 1322.94304  1322.94304  1322.94304    90.00000    90.00000    90.00000  Step:        4800  Bead:      20 positions{angstrom}  cell{angstrom}
       E -2.63875e+01  1.55550e+01 -4.69912e+01
       E -5.13016e+01  2.40259e+01  2.55434e+00
       E  2.56584e+01 -1.11882e+01  2.61803e+01
3
# CELL(abcABC): 1322.94304  1322.94304  1322.94304    90.00000    90.00000    90.00000  Step:        4900  Bead:      20 positions{angstrom}  cell{angstrom}
       E  3.31605e+01  1.30710e+01  1.36601e+01
       E -5.42826e+01 -9.83379e+00 -2.56574e+01
       E  6.06296e+00 -5.76318e+01  1.12153e+01
3
# CELL(abcABC): 1322.94304  1322.94304  1322.94304    90.00000    90.00000    90.00000  Step:        5000  Bead:      20 positions{angstrom}  cell{angstrom}
       E  2.55725e+01  5.63119e+00  2.48767e+01
       E -4.68641e+01 -1.19632e+01 -1.27315e+01
       E  2.37516e+01  1.09498e+01 -1.20157e+01
3
# CELL(abcABC): 1322.94304  1322.94304  1322.94304    90.00000    90.00000    90.00000  Step:        5100  Bead:      20 positions{angstrom}  cell{angstrom}
       E  6.97464e+00  1.88339e+01  2.88921e+01
       E -7.29545e+01  8.30850e+00 -1.99858e+01
       E -4.25270e+00 -8.81864e+00 -3.68284e+01
3
# CELL(abcABC): 1322.94304  1322.94304  1322.94304    90.00000    90.00000    90.00000  Step:        5200  Bead:      20 positions{angstrom}  cell{angstrom}
       E -3.87305e+01  5.37865e+00  8.41280e+00
       E -3.41828e+01  1.06086e+01 -4.48160e+01
       E  9.44609e+00  8.70019e+00 -1.28321e+01
3
# CELL(abcABC): 1322.94304  1322.94304  1322.94304    90.00000    90.00000    90.00000  Step:        5300  Bead:      20 positions{angstrom}  cell{angstrom}
       E -1.25172e+01  7.51910e+00  1.71185e+01
       E -1.43247e+01  5.64548e+01 -1.48996e+01
       E -4.40656e+01  4.13056e+01  2.08465e+01
3
# CELL(abcABC): 1322.94304  1322.94304  1322.94304    90.00000    90.00000    90.00000  Step:        5400  Bead:      20 positions{angstrom}  cell{angstrom}
       E  1.47403e+01  3.29562e+00  8.06378e+00
       E  7.31135e+00  1.90300e+01  1.18565e+01
       E -2.85957e+01  3.53849e+01  4.20527e+01
3
# CELL(abcABC): 1322.94304  1322.94304  1322.94304    90.00000    90.00000    90.00000  Step:        5500  Bead:      20 positions{angstrom}  cell{angstrom}
       E  4.21618e+01 -2.68726e+01 -3.68887e+01
       E -3.69912e+01  2.94054e+01  3.84054e+00
       E -4.12197e+01 -5.53388e+00  4.30691e+01
3
# CELL(abcABC): 1322.94304  1322.94304  1322.94304    90.00000    90.00000    90.00000  Step:        5600  Bead:      20 positions{angstrom}  cell{angstrom}
       E  1.63025e+01  2.72192e+01 -2.72797e+01
       E -6.17548e+01  8.92372e+00  9.10017e+00
       E -5.60834e+01  7.79025e+00  3.35095e+01
3
# CELL(abcABC): 1322.94304  1322.94304  1322.94304    90.00000    90.00000    90.00000  Step:        5700  Bead:      20 positions{angstrom}  cell{angstrom}
       E  3.02364e+01 -2.29752e+01 -4.53691e+01
       E -7.18282e+01  2.08859e+00 -1.84034e+01
       E -7.64389e+01  1.33991e+00 -3.53449e+00
3
# CELL(abcABC): 1322.94304  1322.94304  1322.94304    90.00000    90.00000    90.00000  Step:        5800  Bead:      20 positions{angstrom}  cell{angstrom}
       E  1.55944e+01  1.19623e+01 -1.89163e+01
       E -4.31380e+01  3.08789e+01 -3.47612e+01
       E -4.41659e+01  2.65722e+01  2.83102e+01
3
# CELL(abcABC): 1322.94304  1322.94304  1322.94304    90.00000    90.00000    90.00000  Step:        5900  Bead:      20 positions{angstrom}  cell{angstrom}
       E  2.82519e+01  1.59357e+01 -2.25717e+01
       E -2.70998e+01  4.80092e+00  3.26429e+01
       E -1.60342e+01 -1.50516e+01 -4.83892e+01
3
# CELL(abcABC): 1322.94304  1322.94304  1322.94304    90.00000    90.00000    90.00000  Step:        6000  Bead:      20 positions{angstrom}  cell{angstrom}
       E  6.21822e+00 -1.46229e+01 -2.12880e+01
       E  1.36527e+01  1.25153e+01  2.31667e+01
       E -4.59641e+00 -2.41897e+01 -1.35401e+01
3
# CELL(abcABC): 1322.94304  1322.94304  1322.94304    90.00000    90.00000    90.00000  Step:        6100  Bead:      20 positions{angstrom}  cell{angstrom}
       E -2.22387e-01 -1.68349e+01 -1.61474e+01
       E  6.66492e+01  3.44343e+01  1.71285e+01
       E  1.42316e+01 -3.70197e+01 -9.84905e+00
3
# CELL(abcABC): 1322.94304  1322.94304  1322.94304    90.00000    90.00000    90.00000  Step:        6200  Bead:      20 positions{angstrom}  cell{angstrom}
       E -4.76138e+00 -3.54382e+01 -1.01608e+02
       E  1.02554e+02  5.17057e+01  1.87227e+01
       E  6.78503e+00 -4.86910e+01  9.10220e+00
3
# CELL(abcABC): 1322.94304  1322.94304  1322.94304    90.00000    90.00000    90.00000  Step:        6300  Bead:      20 positions{angstrom}  cell{angstrom}
       E  2.22569e+01 -4.63151e+01 -1.20076e+02
       E  7.58908e+01  9.04910e+00 -3.31407e+01
       E  2.22385e+01 -4.07088e+01 -3.32310e+00
3
# CELL(abcABC): 1322.94304  1322.94304  1322.94304    90.00000    90.00000    90.00000  Step:        6400  Bead:      20 positions{angstrom}  cell{angstrom}
       E  5.66717e+01 -3.99547e+01 -1.41096e+02
       E  5.01967e+01 -3.87420e+01 -4.15866e+01
       E  3.07545e+01 -9.78033e+00 -2.03529e+01
3
# CELL(abcABC): 1322.94304  1322.94304  1322.94304    90.00000    90.00000    90.00000  Step:        6500  Bead:      20 positions{angstrom}  cell{angstrom}
       E  4.40519e+01 -4.63022e+01 -1.00263e+02
       E  2.19933e+01  4.81557e+01 -6.71012e+01
       E  5.15831e+01 -2.37389e+01  8.32690e+00
3
# CELL(abcABC): 1322.94304  1322.94304  1322.94304    90.00000    90.00000    90.00000  Step:        6600  Bead:      20 positions{angstrom}  cell{angstrom}
       E  1.32517e+01 -9.28025e+01 -8.69241e+01
       E  2.07926e+01 -1.22918e+01 -3.77628e+01
       E  3.68527e+01 -1.00434e+01  2.88171e+00
3
# CELL(abcABC): 1322.94304  1322.94304  1322.94304    90.00000    90.00000    90.00000  Step:        6700  Bead:      20 positions{angstrom}  cell{angstrom}
       E -2.58732e+01 -1.16095e+02 -7.07363e+01
       E  3.53019e+01  9.90601e+00 -1.13808e+01
       E  3.85441e+01 -1.01975e+01  3.67513e+01
3
# CELL(abcABC): 1322.94304  1322.94304  1322.94304    90.00000    90.00000    90.00000  Step:        6800  Bead:      20 positions{angstrom}  cell{angstrom}
       E  3.90566e+00 -1.15772e+02 -7.82517e+01
       E  3.87619e+01 -3.73985e+01 -4.67788e+01
       E  7.58215e+00 -2.41064e+01 -9.49881e+00
3
# CELL(abcABC): 1322.94304  1322.94304  1322.94304    90.00000    90.00000    90.00000  Step:        6900  Bead:      20 positions{angstrom}  cell{angstrom}
       E  3.37078e+01 -6.28956e+01 -3.02939e+01
       E  2.96707e+01 -2.88562e+01 -3.97647e+01
       E -1.81551e+01  4.56449e+00 -1.98091e+01
3
# CELL(abcABC): 1322.94304  1322.94304  1322.94304    90.00000    90.00000    90.00000  Step:        7000  Bead:      20 positions{angstrom}  cell{angstrom}
       E  4.15561e+01 -4.52870e+01 -4.81764e+00
       E  3.77034e+01  1.05272e+01 -3.60134e+01
       E  3.04630e+01  6.34868e-01 -2.39447e+01
3
# CELL(abcABC): 1322.94304  1322.94304  1322.94304    90.00000    90.00000    90.00000  Step:        7100  Bead:      20 positions{angstrom}  cell{angstrom}
       E  3.84524e+01 -1.55351e+01 -2.50858e+01
       E  6.21837e+00  2.48834e+01  3.56077e+00
       E  4.72953e+01  1.06686e+01 -4.93574e+01
3
# CELL(abcABC): 1322.94304  1322.94304  1322.94304    90.00000    90.00000    90.00000  Step:        7200  Bead:      20 positions{angstrom}  cell{angstrom}
       E  3.97472e+01 -3.34555e+01 -4.15196e+01
       E -4.11356e+01  2.59876e+01  2.32977e+01
       E  7.31932e+01  5.08517e+01 -2.91896e+01
3
# CELL(abcABC): 1322.94304  1322.94304  1322.94304    90.00000    90.00000    90.00000  Step:        7300  Bead:      20 positions{angstrom}  cell{angstrom}
       E  3.80410e+01 -4.30536e+01 -3.13692e+01
       E -3.51886e+01  3.24527e+01  2.31152e+01
       E  5.27754e+01  5.13155e+01 -2.10185e+01
3
# CELL(abcABC): 1322.94304  1322.94304  1322.94304    90.00000    90.00000    90.00000  Step:        7400  Bead:      20 positions{angstrom}  cell{angstrom}
       E  3.69988e+00 -3.03328e+01 -3.41307e+01
       E -3.39774e+01 -1.05652e+00 -2.45454e+00
       E  5.45266e+01  5.43686e+01 -1.48500e+01
3
# CELL(abcABC): 1322.94304  1322.94304  1322.94304    90.00000    90.00000    90.00000  Step:        7500  Bead:      20 positions{angstrom}  cell{angstrom}
       E  2.53910e+01 -7.36897e+01 -6.79559e+01
       E -4.63717e+01 -6.81669e+00  2.31471e+01
       E  7.00855e+01  1.94929e+01 -9.03636e+00
3
# CELL(abcABC): 1322.94304  1322.94304  1322.94304    90.00000    90.00000    90.00000  Step:        7600  Bead:      20 positions{angstrom}  cell{angstrom}
       E -1.04156e+01 -6.11629e+01 -6.04449e+01
       E -4.90284e+01 -5.93770e+01 -9.50767e+00
       E  2.58923e+01  1.63655e+01 -2.50719e+01
3
# CELL(abcABC): 1322.94304  1322.94304  1322.94304    90.00000    90.00000    90.00000  Step:        7700  Bead:      20 positions{angstrom}  cell{angstrom}
       E  7.72766e+00 -7.84359e+01 -3.16418e+01
       E -7.16715e+00 -4.68255e+01 -1.14799e+01
       E  5.51579e+01 -2.85608e+01 -3.24872e+01
3
# CELL(abcABC): 1322.94304  1322.94304  1322.94304    90.00000    90.00000    90.00000  Step:        7800  Bead:      20 positions{angstrom}  cell{angstrom}
       E  6.10948e+00 -7.65386e+01 -6.58719e+01
       E -4.85986e+00 -2.02131e+01 -1.67679e+01
       E  4.14075e+01 -1.71866e+01 -1.41997e+01
3
# CELL(abcABC): 1322.94304  1322.94304  1322.94304    90.00000    90.00000    90.00000  Step:        7900  Bead:      20 positions{angstrom}  cell{angstrom}
       E  1.76486e+01 -6.08719e+01 -2.24411e+01
       E  8.67075e+00 -2.31252e+01 -4.88956e+01
       E -1.82611e+01 -1.51280e+01 -4.33368e+01
3
# CELL(abcABC): 1322.94304  1322.94304  1322.94304    90.00000    90.00000    90.00000  Step:        8000  Bead:      20 positions{angstrom}  cell{angstrom}
       E  9.54392e+00 -1.58506e+00 -2.21348e+01
       E -3.03833e+01  6.25194e+00 -3.79103e+01
       E  3.47316e+01 -3.22262e+00 -6.78720e+01
3
# CELL(abcABC): 1322.94304  1322.94304  1322.94304    90.00000    90.00000    90.00000  Step:        8100  Bead:      20 positions{angstrom}  cell{angstrom}
       E -1.46563e+00  1.68506e+01 -1.94203e+01
       E -3.01841e+01 -8.78574e+00 -2.93543e+01
       E  8.37484e+00 -4.48366e+00 -1.22037e+01
3
# CELL(abcABC): 1322.94304  1322.94304  1322.94304    90.00000    90.00000    90.00000  Step:        8200  Bead:      20 positions{angstrom}  cell{angstrom}
       E -2.24243e+01  2.75703e+01 -5.02434e+01
       E -3.23496e+01 -2.04012e+01 -1.31423e+01
       E  4.11750e+00 -1.95587e+01  3.81041e+01
3
# CELL(abcABC): 1322.94304  1322.94304  1322.94304    90.00000    90.00000    90.00000  Step:        8300  Bead:      20 positions{angstrom}  cell{angstrom}
       E -4.48627e+00  4.50011e+01  1.72435e+01
       E -2.02456e+01  2.67286e+00 -2.28321e+01
       E -1.42346e+01 -5.78752e+01  6.04109e+01
3
# CELL(abcABC): 1322.94304  1322.94304  1322.94304    90.00000    90.00000    90.00000  Step:        8400  Bead:      20 positions{angstrom}  cell{angstrom}
       E -1.15664e+01  2.27727e+01  7.07814e+00
       E  5.02044e+00  2.01666e+01 -1.99266e+01
       E  4.75067e+00 -5.85489e+01  3.78816e+01
3
# CELL(abcABC): 1322.94304  1322.94304  1322.94304    90.00000    90.00000    90.00000  Step:        8500  Bead:      20 positions{angstrom}  cell{angstrom}
       E -3.89483e+00 -3.09387e+01 -2.76550e+01
       E  9.13364e+00  3.02590e+01 -2.15603e+01
       E  1.70587e+01 -2.89659e+01  4.57371e+01
3
# CELL(abcABC): 1322.94304  1322.94304  1322.94304    90.00000    90.00000    90.00000  Step:        8600  Bead:      20 positions{angstrom}  cell{angstrom}
       E -5.26601e+00 -3.65857e+01 -1.99159e+01
       E  3.11427e+00 -8.14962e+00 -4.07294e+01
       E  4.10056e+01 -2.61387e+01  6.42546e+01
3
# CELL(abcABC): 1322.94304  1322.94304  1322.94304    90.00000    90.00000    90.00000  Step:        8700  Bead:      20 positions{angstrom}  cell{angstrom}
       E -1.35742e+01  3.50133e+00  1.07745e+01
       E  1.47315e+01  3.73040e+00  1.67937e+01
       E  4.58089e+01  1.62902e+00  5.02539e+01
3
# CELL(abcABC): 1322.94304  1322.94304  1322.94304    90.00000    90.00000    90.00000  Step:        8800  Bead:      20 positions{angstrom}  cell{angstrom}
       E -1.48549e+01  3.27844e+01 -9.20487e+00
       E -6.60863e+00 -6.99114e+00  1.49216e+01
       E  5.67053e+01 -7.01455e+01  1.47525e+01
3
# CELL(abcABC): 1322.94304  1322.94304  1322.94304    90.00000    90.00000    90.00000  Step:        8900  Bead:      20 positions{angstrom}  cell{angstrom}
       E -5.15081e+01  2.55350e+01  4.20077e+01
       E -5.33970e-01  5.49140e+00  1.57310e+01
       E  8.88639e+01 -5.01616e+01  2.24893e+00
3
# CELL(abcABC): 1322.94304  1322.94304  1322.94304    90.00000    90.00000    90.00000  Step:        9000  Bead:      20 positions{angstrom}  cell{angstrom}
       E -5.07973e+01  1.73749e+01  3.77837e+01
       E  7.53256e+00  1.33617e+01  7.69624e+01
       E  3.56201e+01 -3.94073e+01  2.96675e+01
3
# CELL(abcABC): 1322.94304  1322.94304  1322.94304    90.00000    90.00000    90.00000  Step:        9100  Bead:      20 positions{angstrom}  cell{angstrom}
       E -2.56104e+01  2.19417e+01  1.18162e+01
       E  2.75512e+01 -3.85672e+01  5.98616e+01
       E  2.61770e+01 -7.28829e+00 -5.11147e+00
3
# CELL(abcABC): 1322.94304  1322.94304  1322.94304    90.00000    90.00000    90.00000  Step:        9200  Bead:      20 positions{angstrom}  cell{angstrom}
       E -1.96755e+00  2.57565e+01  2.58019e+00
       E -1.16677e+01 -2.83492e+00  5.87325e+01
       E  3.00205e+01 -3.87742e+01 -1.07152e+01
3
# CELL(abcABC): 1322.94304  1322.94304  1322.94304    90.00000    90.00000    90.00000  Step:        9300  Bead:      20 positions{angstrom}  cell{angstrom}
       E  5.84051e+00 -1.01384e-02 -2.38066e+01
       E -4.59606e+01  3.09099e+00  2.75271e+01
       E -4.85158e+00 -3.00402e+01 -8.49981e-01
3
# CELL(abcABC): 1322.94304  1322.94304  1322.94304    90.00000    90.00000    90.00000  Step:        9400  Bead:      20 positions{angstrom}  cell{angstrom}
       E -8.70498e-01  3.05046e+01 -5.30933e+01
       E -4.03618e+01 -7.25173e+00  4.29294e+01
       E -1.43466e+01 -5.07101e+01  1.52838e+01
3
# CELL(abcABC): 1322.94304  1322.94304  1322.94304    90.00000    90.00000    90.00000  Step:        9500  Bead:      20 positions{angstrom}  cell{angstrom}
       E  3.03923e+01  6.41151e+01 -4.88477e+01
       E -7.18651e+00 -4.83404e+01  2.57973e+01
       E  8.61930e+00 -2.43588e+01  3.43594e+01
3
# CELL(abcABC): 1322.94304  1322.94304  1322.94304    90.00000    90.00000    90.00000  Step:        9600  Bead:      20 positions{angstrom}  cell{angstrom}
       E  1.06182e+01  2.76093e+01 -5.02331e+01
       E  4.58806e+01 -9.31862e+01 -2.28477e+00
       E -3.64173e+00 -1.17166e+01 -3.69104e+00
3
# CELL(abcABC): 1322.94304  1322.94304  1322.94304    90.00000    90.00000    90.00000  Step:        9700  Bead:      20 positions{angstrom}  cell{angstrom}
       E -1.04165e+01 -3.57157e+01 -4.84506e+01
       E  2.04537e+01 -7.62457e+01  8.39240e+00
       E  6.84734e+00 -6.82036e+00 -5.91125e+00
3
# CELL(abcABC): 1322.94304  1322.94304  1322.94304    90.00000    90.00000    90.00000  Step:        9800  Bead:      20 positions{angstrom}  cell{angstrom}
       E -2.81435e+01 -6.42999e+01 -3.21271e+01
       E -1.22065e+00 -7.80663e+01  5.42352e-01
       E -1.53888e+01 -1.45915e+01  3.99297e+01
3