3
# CELL(abcABC): 1322.94304  1322.94304  1322.94304    90.00000    90.00000    90.00000  Step:           0  Bead:       5 positions{angstrom}  cell{angstrom}
       E  0.00000e+00  0.00000e+00  0.00000e+00
       E  0.00000e+00  0.00000e+00  0.00000e+00
       E  0.00000e+00  0.00000e+00  0.00000e+00
3
# CELL(abcABC): 1322.94304  1322.94304  1322.94304    90.00000    90.00000    90.00000  Step:         100  Bead:       5 positions{angstrom}  cell{angstrom}
       E -3.44795e+01 -3.72820e+01  7.34042e+00
       E  2.95574e+00  1.14706e+01 -1.16426e-01
       E -2.21503e+01  3.01776e+00  3.08677e+00
3
# CELL(abcABC): 1322.94304  1322.94304  1322.94304    90.00000    90.00000    90.00000  Step:         200  Bead:       5 positions{angstrom}  cell{angstrom}
       E -3.58895e+01 -1.45517e+01  2.81523e+00
       E  2.79337e+01  2.70189e+01 -2.67536e+01
       E -3.85412e+01  5.22008e+00  2.66331e+01
3
# CELL(abcABC): 1322.94304  1322.94304  1322.94304    90.00000    90.00000    90.00000  Step:         300  Bead:       5 positions{angstrom}  cell{angstrom}
       E -3.61598e+00 -3.47697e+01 -3.18528e+01
       E  5.82673e+00  2.19871e+00 -4.45747e+01
       E -2.94795e+01  2.40037e+01  3.63233e+01
3
# CELL(abcABC): 1322.94304  1322.94304  1322.94304    90.00000    90.00000    90.00000  Step:         400  Bead:       5 positions{angstrom}  cell{angstrom}
       E  1.95961e+01  1.93994e+01  8.03865e+00
       E  3.22770e+00  4.93379e+00 -9.59326e+00
       E -1.81654e+01  4.48152e+01  4.39577e+01
3
# CELL(abcABC): 1322.94304  1322.94304  1322.94304    90.00000    90.00000    90.00000  Step:         500  Bead:       5 positions{angstrom}  cell{angstrom}
       E -1.16620e+01  7.08494e+00 -3.41794e+01
       E -4.48095e+00 -8.00532e+00  2.10162e+01
       E -7.82923e+00  3.14231e+01 -1.77663e+01
3
# CELL(abcABC): 1322.94304  1322.94304  1322.94304    90.00000    90.00000    90.00000  Step:         600  Bead:       5 positions{angstrom}  cell{angstrom}
       E -2.03203e+01  9.26608e+00 -5.24177e+01
       E  4.82364e+00 -1.48002e+01  3.43880e+01
       E -2.64340e+01  1.95585e+01  2.51148e+01
3
# CELL(abcABC): 1322.94304  1322.94304  1322.94304    90.00000    90.00000    90.00000  Step:         700  Bead:       5 positions{angstrom}  cell{angstrom}
       E -1.30644e+01  7.65604e+00 -3.51156e+01
       E -1.22050e+01  3.99610e+00  1.22745e+01
       E -7.18065e-01  2.09294e+01  3.69932e+01
3
# CELL(abcABC): 1322.94304  1322.94304  1322.94304    90.00000    90.00000    90.00000  Step:         800  Bead:       5 positions{angstrom}  cell{angstrom}
       E -2.95956e+01 -1.47288e+00 -5.41805e+01
       E -2.17459e+01  2.47273e+01 -1.18342e+01
       E -4.46226e+01  3.31777e+01  7.44559e+01
3
# CELL(abcABC): 1322.94304  1322.94304  1322.94304    90.00000    90.00000    90.00000  Step:         900  Bead:       5 positions{angstrom}  cell{angstrom}
       E  2.31519e+01 -2.53956e+01 -2.07084e+01
       E  2.42481e+01  4.58798e+00  3.11206e+00
       E -3.57518e+01  3.58659e+01  9.94812e+01
3
# CELL(abcABC): 1322.94304  1322.94304  1322.94304    90.00000    90.00000    90.00000  Step:        1000  Bead:       5 positions{angstrom}  cell{angstrom}
       E -3.10441e+01  2.31956e+00 -8.39834e+01
       E  1.50204e+01 -3.88011e+00 -8.83158e+00
       E -2.30515e+01  2.08606e+01  1.09048e+02
3
# CELL(abcABC): 1322.94304  1322.94304  1322.94304    90.00000    90.00000    90.00000  Step:        1100  Bead:       5 positions{angstrom}  cell{angstrom}
       E  5.11119e+00  2.37212e+01 -6.15661e+01
       E  5.08814e+01 -9.96874e+00 -5.59357e+01
       E -4.86398e+01 -1.06498e+01  6.10523e+01
3
# CELL(abcABC): 1322.94304  1322.94304  1322.94304    90.00000    90.00000    90.00000  Step:        1200  Bead:       5 positions{angstrom}  cell{angstrom}
       E  2.00473e+01  1.73562e+01 -6.28710e+01
       E  3.03378e+01 -2.36901e+01 -9.63161e+01
       E -2.90796e+01  2.03129e+01  4.68832e+01
3
# CELL(abcABC): 1322.94304  1322.94304  1322.94304    90.00000    90.00000    90.00000  Step:        1300  Bead:       5 positions{angstrom}  cell{angstrom}
       E  1.08422e+01  3.09225e+00 -7.26369e+01
       E -1.39006e+01 -6.78417e+01 -4.74254e+01
       E -4.75289e+01  4.26985e+01  2.49578e+01
3
# CELL(abcABC): 1322.94304  1322.94304  1322.94304    90.00000    90.00000    90.00000  Step:        1400  Bead:       5 positions{angstrom}  cell{angstrom}
       E -3.36720e+01  1.34936e+01 -7.70934e+01
       E -9.38376e+00  2.10008e+00 -4.95626e+01
       E -4.94037e+01  1.24088e+01  4.33819e+01
3
# CELL(abcABC): 1322.94304  1322.94304  1322.94304    90.00000    90.00000    90.00000  Step:        1500  Bead:       5 positions{angstrom}  cell{angstrom}
       E -4.93229e+01  1.35863e+01 -6.87008e+01
       E  8.19874e+00 -1.69099e+01 -2.44898e+01
       E -4.85284e+01  4.13384e+01  4.77915e+01
3
# CELL(abcABC): 1322.94304  1322.94304  1322.94304    90.00000    90.00000    90.00000  Step:        1600  Bead:       5 positions{angstrom}  cell{angstrom}
       E -2.91779e+01  5.31808e+01 -3.44845e+01
       E -2.26744e+00 -6.13259e+00  6.81307e+00
       E -1.59427e+01  6.10945e+01  3.96777e+00
3
# CELL(abcABC): 1322.94304  1322.94304  1322.94304    90.00000    90.00000    90.00000  Step:        1700  Bead:       5 positions{angstrom}  cell{angstrom}
       E -8.68754e+00  4.30377e+01 -2.06783e+01
       E -1.66760e+01  1.52936e+01  6.87083e+00
       E -1.86263e+01  7.66748e+01  3.28500e+01
3
# CELL(abcABC): 1322.94304  1322.94304  1322.94304    90.00000    90.00000    90.00000  Step:        1800  Bead:       5 positions{angstrom}  cell{angstrom}
       E -2.76430e+01  5.03229e+01  9.63912e+00
       E -2.26199e+01  2.15261e+01  4.69204e+00
       E -7.10474e+01  5.82399e+01  6.46516e+01
3
# CELL(abcABC): 1322.94304  1322.94304  1322.94304    90.00000    90.00000    90.00000  Step:        1900  Bead:       5 positions{angstrom}  cell{angstrom}
       E -2.47728e+01  3.13362e+01  3.56838e+01
       E -7.70519e+01 -1.25066e+00  1.36808e+01
       E -7.19687e+01  4.73062e+01  4.93907e+01
3
# CELL(abcABC): 1322.94304  1322.94304  1322.94304    90.00000    90.00000    90.00000  Step:        2000  Bead:       5 positions{angstrom}  cell{angstrom}
       E  1.30667e+01  1.68928e+00  3.76172e+01
       E -5.05968e+01  1.97941e+01  3.64526e+01
       E -7.63977e+01  4.78001e+01  3.77977e+01
3
# CELL(abcABC): 1322.94304  1322.94304  1322.94304    90.00000    90.00000    90.00000  Step:        2100  Bead:       5 positions{angstrom}  cell{angstrom}
       E -1.47352e+01 -2.25656e+01  4.04635e+01
       E -3.51577e+01  1.10770e+00  1.12698e+01
       E -6.98388e+01  6.22981e+01 -4.71463e+00
3
# CELL(abcABC): 1322.94304  1322.94304  1322.94304    90.00000    90.00000    90.00000  Step:        2200  Bead:       5 positions{angstrom}  cell{angstrom}
       E  1.85655e-01 -5.51283e+01  4.38133e+01
       E -4.43787e+01 -3.26305e+01 -2.45431e+01
       E -4.72057e+01  5.86389e+01  3.33234e+01
3
# CELL(abcABC): 1322.94304  1322.94304  1322.94304    90.00000    90.00000    90.00000  Step:        2300  Bead:       5 positions{angstrom}  cell{angstrom}
       E  1.10964e+01 -7.40242e+01  2.65244e+01
       E -8.47516e+00 -6.76762e+01 -2.05147e+01
       E -2.29104e+01  8.51233e+01  2.75476e+01
3
# CELL(abcABC): 1322.94304  1322.94304  1322.94304    90.00000    90.00000    90.00000  Step:        2400  Bead:       5 positions{angstrom}  cell{angstrom}
       E -6.62489e+00 -5.95715e+01  3.36415e+01
       E  2.03933e+01 -5.45211e+01 -9.33358e+00
       E  2.40067e+00  4.40701e+01  4.15844e+01
3
# CELL(abcABC): 1322.94304  1322.94304  1322.94304    90.00000    90.00000    90.00000  Step:        2500  Bead:       5 positions{angstrom}  cell{angstrom}
       E -6.76335e+00 -2.34293e+01  5.48051e+01
       E -4.62287e+00 -2.60455e+01 -4.14194e+01
       E -2.09892e+01 -2.36311e+01  6.09270e+01
3
# CELL(abcABC): 1322.94304  1322.94304  1322.94304    90.00000    90.00000    90.00000  Step:        2600  Bead:       5 positions{angstrom}  cell{angstrom}
       E  2.18077e+01 -4.94642e+01  9.05955e+01
       E -2.29055e+01 -3.81760e+01 -5.97975e+01
       E  4.02939e+00 -1.39198e+01  6.29603e+01
3
# CELL(abcABC): 1322.94304  1322.94304  1322.94304    90.00000    90.00000    90.00000  Step:        2700  Bead:       5 positions{angstrom}  cell{angstrom}
       E -9.65654e-01 -5.12214e+01  8.37111e+01
       E -8.12899e+01 -4.72485e+01 -2.87910e+01
       E -2.29810e+00 -9.82649e+00  5.33046e+01
3
# CELL(abcABC): 1322.94304  1322.94304  1322.94304    90.00000    90.00000    90.00000  Step:        2800  Bead:       5 positions{angstrom}  cell{angstrom}
       E -4.48867e+01 -5.07126e+01  1.44810e+01
       E -2.48459e+01 -3.99770e+01 -4.27233e+01
       E  3.57231e+01  5.65833e+00  1.99981e+01
3
# CELL(abcABC): 1322.94304  1322.94304  1322.94304    90.00000    90.00000    90.00000  Step:        2900  Bead:       5 positions{angstrom}  cell{angstrom}
       E -6.85890e+01 -7.54295e+01 -1.38252e+01
       E -2.66185e+01 -5.10464e+01 -1.98528e+01
       E  5.94047e+01  3.12971e-01  3.59087e+01
3
# CELL(abcABC): 1322.94304  1322.94304  1322.94304    90.00000    90.00000    90.00000  Step:        3000  Bead:       5 positions{angstrom}  cell{angstrom}
       E -4.10016e+01 -5.97584e+01 -2.54826e+01
       E -3.40017e+01 -4.93735e+01  3.78666e+00
       E  6.00159e+01  1.87203e+01  2.63916e+01
3
# CELL(abcABC): 1322.94304  1322.94304  1322.94304    90.00000    90.00000    90.00000  Step:        3100  Bead:       5 positions{angstrom}  cell{angstrom}
       E -5.69406e+01 -5.50593e+01  3.25566e+01
       E -2.87846e+01 -6.95474e+01  4.14239e+01
       E  2.93444e+01  3.02570e+01  1.15303e+01
3
# CELL(abcABC): 1322.94304  1322.94304  1322.94304    90.00000    90.00000    90.00000  Step:        3200  Bead:       5 positions{angstrom}  cell{angstrom}
       E -6.87202e+01 -8.24617e+00  6.53049e+01
       E -7.09136e+01 -6.09119e+01  4.10220e+01
       E  5.45161e+01  6.17935e+01  8.30522e+00
3
# CELL(abcABC): 1322.94304  1322.94304  1322.94304    90.00000    90.00000    90.00000  Step:        3300  Bead:       5 positions{angstrom}  cell{angstrom}
       E -9.28490e+01 -2.12514e+01  4.17536e+01
       E -7.53728e+01 -2.62141e+01  5.55131e+01
       E  6.51314e+01  5.30234e+01  3.98835e+01
3
# CELL(abcABC): 1322.94304  1322.94304  1322.94304    90.00000    90.00000    90.00000  Step:        3400  Bead:       5 positions{angstrom}  cell{angstrom}
       E -7.16675e+01 -9.55849e+00  4.14766e+01
       E -7.04985e+01 -5.93043e+01  4.23765e+01
       E  9.68405e+00  6.33791e+01  6.92834e+01
3
# CELL(abcABC): 1322.94304  1322.94304  1322.94304    90.00000    90.00000    90.00000  Step:        3500  Bead:       5 positions{angstrom}  cell{angstrom}
       E -8.24004e+01 -2.55189e+01  3.12748e+01
       E -5.38967e+01 -5.60185e+01  4.68650e+01
       E -4.94431e+00  5.56596e+01  6.67236e+01
3
# CELL(abcABC): 1322.94304  1322.94304  1322.94304    90.00000    90.00000    90.00000  Step:        3600  Bead:       5 positions{angstrom}  cell{angstrom}
       E -7.96970e+01 -3.48123e+01  1.34255e+01
       E -2.13992e+01 -4.19515e+01  1.33372e+01
       E -4.62048e+01  4.49333e+01  2.96746e+01
3
# CELL(abcABC): 1322.94304  1322.94304  1322.94304    90.00000    90.00000    90.00000  Step:        3700  Bead:       5 positions{angstrom}  cell{angstrom}
       E -7.32220e+01 -4.69731e+01 -2.74236e+01
       E -1.03346e+01 -2.16322e+01  2.26934e+01
       E -3.81638e+01  8.40031e+00  1.25975e+00
3
# CELL(abcABC): 1322.94304  1322.94304  1322.94304    90.00000    90.00000    90.00000  Step:        3800  Bead:       5 positions{angstrom}  cell{angstrom}
       E -6.86594e+01 -2.77413e+01 -4.34617e+01
       E -2.69491e+01 -2.91884e+01 -1.20147e+01
       E -2.92092e+01 -2.75359e+00 -2.29336e+01
3
# CELL(abcABC): 1322.94304  1322.94304  1322.94304    90.00000    90.00000    90.00000  Step:        3900  Bead:       5 positions{angstrom}  cell{angstrom}
       E -8.86279e+01 -3.79540e+00  5.50902e+00
       E -2.81689e+00 -9.98016e+00 -4.87776e+01
       E -1.30082e+01 -5.86739e+01  8.98866e+00
3
# CELL(abcABC): 1322.94304  1322.94304  1322.94304    90.00000    90.00000    90.00000  Step:        4000  Bead:       5 positions{angstrom}  cell{angstrom}
       E -1.03159e+02  7.49441e+00 -2.73081e+01
       E -4.33454e+01 -7.80445e+00  1.31841e+01
       E -1.48278e+01 -2.72972e+01 -1.73435e+01
3
# CELL(abcABC): 1322.94304  1322.94304  1322.94304    90.00000    90.00000    90.00000  Step:        4100  Bead:       5 positions{angstrom}  cell{angstrom}
       E -1.22771e+02  6.48540e+01 -6.54192e+01
       E -2.99657e+01  5.01047e+01  2.74890e+01
       E -2.66503e+01  1.41184e+01  2.81805e+01
3
# CELL(abcABC): 1322.94304  1322.94304  1322.94304    90.00000    90.00000    90.00000  Step:        4200  Bead:       5 positions{angstrom}  cell{angstrom}
       E -4.93326e+01  6.44700e+01 -6.71715e+01
       E -3.86689e+01  3.45502e+01  3.65653e+01
       E -5.68455e+01 -1.31179e+01  3.68370e+00
3
# CELL(abcABC): 1322.94304  1322.94304  1322.94304    90.00000    90.00000    90.00000  Step:        4300  Bead:       5 positions{angstrom}  cell{angstrom}
       E -5.00732e+01  3.01370e+01 -8.01151e+01
       E -4.28607e+01  1.19946e+01  6.12093e+01
       E -4.95703e+01 -3.49791e+01  1.90494e+01
3
# CELL(abcABC): 1322.94304  1322.94304  1322.94304    90.00000    90.00000    90.00000  Step:        4400  Bead:       5 positions{angstrom}  cell{angstrom}
       E -5.27759e+01  2.96030e+01 -9.72093e+01
       E -7.18222e+01  6.26304e+01  2.73405e+01
       E -4.06872e+01 -2.35856e+01  3.47177e+01
3
# CELL(abcABC): 1322.94304  1322.94304  1322.94304    90.00000    90.00000    90.00000  Step:        4500  Bead:       5 positions{angstrom}  cell{angstrom}
       E -4.10362e+01  3.53075e+01 -6.07790e+01
       E -5.77906e+01  9.36327e+01  1.80631e+01
       E -1.23983e+01 -2.18066e+01  2.11230e+01
3
# CELL(abcABC): 1322.94304  1322.94304  1322.94304    90.00000    90.00000    90.00000  Step:        4600  Bead:       5 positions{angstrom}  cell{angstrom}
       E  2.77673e+00  4.58535e+01 -6.28676e+01
       E -7.75465e+01  3.00621e+01  1.38151e+00
       E -2.33223e+01 -7.56722e+00  3.64074e+01
3
# CELL(abcABC): 1322.94304  1322.94304  1322.94304    90.00000    90.00000    90.00000  Step:        4700  Bead:       5 positions{angstrom}  cell{angstrom}
       E -2.23705e+00  3.72606e+01 -5.41213e+01
       E -6.97397e+01  5.19807e+01 -1.13979e+01
       E -8.81175e-01  4.18612e+01 -1.75249e+00
3
# CELL(abcABC): 1322.94304  1322.94304  1322.94304    90.00000    90.00000    90.00000  Step:        4800  Bead:       5 positions{angstrom}  cell{angstrom}
       E  1.42928e+01  5.11994e+01 -2.13036e+01
       E -8.26665e+01  1.62610e+01 -2.88321e+01
       E  2.35892e+01  2.00533e+01 -4.95783e+01
3
# CELL(abcABC): 1322.94304  1322.94304  1322.94304    90.00000    90.00000    90.00000  Step:        4900  Bead:       5 positions{angstrom}  cell{angstrom}
       E  4.91570e+01  4.76453e+01 -1.88412e+01
       E -9.21148e+01 -2.40656e+01 -3.04288e+01
       E -3.83503e-02  4.12423e+01 -6.67527e+01
3
# CELL(abcABC): 1322.94304  1322.94304  1322.94304    90.00000    90.00000    90.00000  Step:        5000  Bead:       5 positions{angstrom}  cell{angstrom}
       E  6.38997e+01  1.87330e+01  2.28526e+01
       E -5.30616e+01 -5.69849e+01  3.78987e+00
       E -1.12434e+01  1.80622e+01 -6.20909e+01
3
# CELL(abcABC): 1322.94304  1322.94304  1322.94304    90.00000    90.00000    90.00000  Step:        5100  Bead:       5 positions{angstrom}  cell{angstrom}
       E  1.09764e+01  2.99345e+01  1.54904e+01
       E -5.60387e+01 -4.96455e+01  1.33596e+01
       E  2.38460e+01 -1.76451e+01 -6.50336e+00
3
# CELL(abcABC): 1322.94304  1322.94304  1322.94304    90.00000    90.00000    90.00000  Step:        5200  Bead:       5 positions{angstrom}  cell{angstrom}
       E  2.35245e+01  5.64684e+01  1.25621e+01
       E -3.27909e+01 -2.52576e+00 -5.09467e+00
       E  1.02924e+01  1.69509e+01 -7.89278e+00
3
# CELL(abcABC): 1322.94304  1322.94304  1322.94304    90.00000    90.00000    90.00000  Step:        5300  Bead:       5 positions{angstrom}  cell{angstrom}
       E  1.94185e+01  3.39836e+01  4.52621e+01
       E -1.39068e+01  3.63833e+01 -1.46026e+01
       E  1.64118e+00  3.52581e+01  1.55643e+01
3
# CELL(abcABC): 1322.94304  1322.94304  1322.94304    90.00000    90.00000    90.00000  Step:        5400  Bead:       5 positions{angstrom}  cell{angstrom}
       E  1.24134e+01 -1.33740e+00  5.35891e+01
       E -3.28081e+01 -1.70684e+01 -3.39365e+01
       E -1.20672e+01  4.36814e+01  4.46648e+01
3
# CELL(abcABC): 1322.94304  1322.94304  1322.94304    90.00000    90.00000    90.00000  Step:        5500  Bead:       5 positions{angstrom}  cell{angstrom}
       E -1.72709e+00  2.57326e+01  2.73921e+01
       E -2.64055e+01  1.51419e+01 -1.28639e+01
       E -7.97484e+00  1.79227e+01  3.74760e+01
3
# CELL(abcABC): 1322.94304  1322.94304  1322.94304    90.00000    90.00000    90.00000  Step:        5600  Bead:       5 positions{angstrom}  cell{angstrom}
       E  7.85031e+00  4.17296e+01 -6.69569e-02
       E  3.39692e+00  2.84531e+01 -2.60650e+01
       E -1.42309e+01  1.76224e+01  5.43974e+01
3
# CELL(abcABC): 1322.94304  1322.94304  1322.94304    90.00000    90.00000    90.00000  Step:        5700  Bead:       5 positions{angstrom}  cell{angstrom}
       E -3.77312e+00  4.14049e+01  2.70370e+00
       E -5.89255e+00  4.21945e+01 -1.14192e+01
       E -4.85096e+01  2.75350e+01 -1.54039e+00
3
# CELL(abcABC): 1322.94304  1322.94304  1322.94304    90.00000    90.00000    90.00000  Step:        5800  Bead:       5 positions{angstrom}  cell{angstrom}
       E -2.34847e+01  2.29466e+01  1.07692e+01
       E -3.08622e+01  2.43830e+01  2.01192e+01
       E -2.57923e+01 -1.90834e+00  1.91870e+01
3
# CELL(abcABC): 1322.94304  1322.94304  1322.94304    90.00000    90.00000    90.00000  Step:        5900  Bead:       5 positions{angstrom}  cell{angstrom}
       E -6.73102e+00 -1.12654e+01  1.99197e+00
       E -4.06475e+01  2.49586e+01 -1.42914e+01
       E -4.41737e+01 -2.43200e+01 -9.35693e+00
3
# CELL(abcABC): 1322.94304  1322.94304  1322.94304    90.00000    90.00000    90.00000  Step:        6000  Bead:       5 positions{angstrom}  cell{angstrom}
       E  9.05563e+00 -3.00180e+01 -1.01425e+01
       E -2.08789e+01  3.48623e+01 -3.08110e+01
       E  3.55258e+01 -4.89990e+01  1.07732e+00
3
# CELL(abcABC): 1322.94304  1322.94304  1322.94304    90.00000    90.00000    90.00000  Step:        6100  Bead:       5 positions{angstrom}  cell{angstrom}
       E  3.28183e+01 -2.02963e+01 -6.21119e+01
       E  8.59692e+00  1.28979e+01  2.47713e+01
       E  1.29662e+01 -1.42630e+01 -3.06020e+01
3
# CELL(abcABC): 1322.94304  1322.94304  1322.94304    90.00000    90.00000    90.00000  Step:        6200  Bead:       5 positions{angstrom}  cell{angstrom}
       E  4.43850e+01 -5.24553e+01 -9.68394e+01
       E  5.52263e+01 -6.02822e+01  7.37922e+00
       E  1.65129e+01 -7.28410e+00 -4.35459e+01
3
# CELL(abcABC): 1322.94304  1322.94304  1322.94304    90.00000    90.00000    90.00000  Step:        6300  Bead:       5 positions{angstrom}  cell{angstrom}
       E  5.11155e+01 -4.45326e+01 -9.34302e+01
       E  6.49200e+01 -2.70140e+01 -6.89348e+00
       E  8.39822e+00 -3.39815e+01  1.82221e+00
3
# CELL(abcABC): 1322.94304  1322.94304  1322.94304    90.00000    90.00000    90.00000  Step:        6400  Bead:       5 positions{angstrom}  cell{angstrom}
       E  2.15507e+01 -5.51984e+01 -1.05253e+02
       E  7.85385e+01 -5.12358e+01 -3.47792e+01
       E  3.58362e-01 -3.89682e+01  3.93853e+01
3
# CELL(abcABC): 1322.94304  1322.94304  1322.94304    90.00000    90.00000    90.00000  Step:        6500  Bead:       5 positions{angstrom}  cell{angstrom}
       E -2.19575e+01 -1.05500e+02 -1.26465e+02
       E  5.67381e+01 -2.38855e+01 -4.01092e+01
       E -6.02982e+00 -3.74052e+01  1.83250e+01
3
# CELL(abcABC): 1322.94304  1322.94304  1322.94304    90.00000    90.00000    90.00000  Step:        6600  Bead:       5 positions{angstrom}  cell{angstrom}
       E -2.25728e+00 -8.22256e+01 -1.37277e+02
       E -8.39671e+00 -1.88290e+01 -3.27847e+01
       E  1.15034e+01 -7.90881e+00  4.40910e+01
3
# CELL(abcABC): 1322.94304  1322.94304  1322.94304    90.00000    90.00000    90.00000  Step:        6700  Bead:       5 positions{angstrom}  cell{angstrom}
       E  4.68224e+00 -8.42664e+01 -1.26865e+02
       E -2.97427e+00 -4.18558e+01 -2.40299e+01
       E -9.48624e+00  6.33174e-01  3.07621e+00
3
# CELL(abcABC): 1322.94304  1322.94304  1322.94304    90.00000    90.00000    90.00000  Step:        6800  Bead:       5 positions{angstrom}  cell{angstrom}
       E -6.45123e+00 -7.30765e+01 -5.39063e+01
       E  1.21529e+01 -3.47202e+01 -9.47639e+00
       E -1.58666e+01  1.54231e+01  2.97311e+01
3
# CELL(abcABC): 1322.94304  1322.94304  1322.94304    90.00000    90.00000    90.00000  Step:        6900  Bead:       5 positions{angstrom}  cell{angstrom}
       E -4.97396e+00 -5.65015e+01 -5.09230e+01
       E  2.13769e+01 -1.66023e+01 -1.74233e+01
       E -1.61027e+01  3.63852e+01  1.61989e+01
3
# CELL(abcABC): 1322.94304  1322.94304  1322.94304    90.00000    90.00000    90.00000  Step:        7000  Bead:       5 positions{angstrom}  cell{angstrom}
       E -5.81282e+01 -2.41274e+01 -2.91473e+01
       E -3.96817e+00  1.37655e+01 -1.58252e+01
       E  1.27453e+01  2.75935e+01  3.40955e+01
3
# CELL(abcABC): 1322.94304  1322.94304  1322.94304    90.00000    90.00000    90.00000  Step:        7100  Bead:       5 positions{angstrom}  cell{angstrom}
       E -2.32236e+01 -2.52155e+01 -2.46417e+01
       E -2.21121e+01  4.10959e+01  1.62046e+01
       E -1.13913e+01  2.88487e+01  4.56395e+01
3
# CELL(abcABC): 1322.94304  1322.94304  1322.94304    90.00000    90.00000    90.00000  Step:        7200  Bead:       5 positions{angstrom}  cell{angstrom}
       E  9.37339e+00 -3.56788e+01 -4.24902e+01
       E -2.14413e+01  4.56187e+01  3.51244e+01
       E  6.15734e+01  4.05800e+01  1.30817e+01
3
# CELL(abcABC): 1322.94304  1322.94304  1322.94304    90.00000    90.00000    90.00000  Step:        7300  Bead:       5 positions{angstrom}  cell{angstrom}
       E -5.18366e+00 -2.77589e+01 -2.83747e+01
       E  9.60237e+00  4.42242e+01  1.90249e+01
       E  8.71276e+01  1.96945e+01  7.12403e+00
3
# CELL(abcABC): 1322.94304  1322.94304  1322.94304    90.00000    90.00000    90.00000  Step:        7400  Bead:       5 positions{angstrom}  cell{angstrom}
       E -2.12879e+00 -2.52364e+01  8.27318e-01
       E -2.05939e+01  2.88535e+01  6.87629e+01
       E  9.26944e+01  5.28327e+01 -3.21735e+01
3
# CELL(abcABC): 1322.94304  1322.94304  1322.94304    90.00000    90.00000    90.00000  Step:        7500  Bead:       5 positions{angstrom}  cell{angstrom}
       E -1.84781e+01 -6.04221e+01 -2.60818e+01
       E -4.72022e+01  1.63720e+01  1.68649e+01
       E  8.61792e+01  5.86428e+01 -3.13278e+01
3
# CELL(abcABC): 1322.94304  1322.94304  1322.94304    90.00000    90.00000    90.00000  Step:        7600  Bead:       5 positions{angstrom}  cell{angstrom}
       E -4.39268e+01 -8.18715e+01 -1.94815e+01
       E -1.78033e+01 -4.82784e+01  7.03901e+00
       E  9.41217e+01  5.06053e+01 -3.72856e+01
3
# CELL(abcABC): 1322.94304  1322.94304  1322.94304    90.00000    90.00000    90.00000  Step:        7700  Bead:       5 positions{angstrom}  cell{angstrom}
       E  1.86090e+01 -6.76601e+01 -5.04163e+00
       E  3.76267e+00 -6.05229e+01 -1.92023e+01
       E  5.28363e+01  2.17789e+01 -1.93682e+01
3
# CELL(abcABC): 1322.94304  1322.94304  1322.94304    90.00000    90.00000    90.00000  Step:        7800  Bead:       5 positions{angstrom}  cell{angstrom}
       E  9.85900e+00 -3.75859e+01 -5.37625e+01
       E  1.17397e+01 -2.91653e+01 -4.65757e+00
       E  4.51888e+01  1.55414e+01 -5.34184e+01
3
# CELL(abcABC): 1322.94304  1322.94304  1322.94304    90.00000    90.00000    90.00000  Step:        7900  Bead:       5 positions{angstrom}  cell{angstrom}
       E  1.45074e+01  2.01420e+00 -4.81169e+01
       E  4.36389e+01 -4.06410e+01 -2.78793e+01
       E  6.44497e+01  4.57201e+01 -3.76032e+01
3
# CELL(abcABC): 1322.94304  1322.94304  1322.94304    90.00000    90.00000    90.00000  Step:        8000  Bead:       5 positions{angstrom}  cell{angstrom}
       E  1.05192e+00  2.48868e+01 -1.61511e+01
       E  2.92564e+01 -3.09540e+01 -5.13562e+01
       E  1.25186e+01  4.02799e+01 -1.89082e+01
3
# CELL(abcABC): 1322.94304  1322.94304  1322.94304    90.00000    90.00000    90.00000  Step:        8100  Bead:       5 positions{angstrom}  cell{angstrom}
       E  2.70279e+00 -6.86730e+00 -1.38289e+01
       E  1.78217e+01 -1.80994e+01 -2.28269e+01
       E  1.67003e+01 -7.70806e+00  5.16342e+00
3
# CELL(abcABC): 1322.94304  1322.94304  1322.94304    90.00000    90.00000    90.00000  Step:        8200  Bead:       5 positions{angstrom}  cell{angstrom}
       E  3.22469e+01  2.69522e+01 -4.28240e+01
       E  1.74154e+01  2.64681e+01 -1.54961e+00
       E  4.44774e+01 -5.79763e+00  3.08096e+01
3
# CELL(abcABC): 1322.94304  1322.94304  1322.94304    90.00000    90.00000    90.00000  Step:        8300  Bead:       5 positions{angstrom}  cell{angstrom}
       E  1.22458e+01 -3.99353e+00 -3.84922e+01
       E  2.11381e+01  2.18303e+01  2.78941e+01
       E  8.59016e+00 -3.64637e+01  3.65222e+01
3
# CELL(abcABC): 1322.94304  1322.94304  1322.94304    90.00000    90.00000    90.00000  Step:        8400  Bead:       5 positions{angstrom}  cell{angstrom}
       E  2.94572e+01  3.38785e+01 -2.64123e+01
       E  4.74963e+00 -9.24920e+00  2.51570e+01
       E  3.70047e+01  1.82114e+01  1.43554e+01
3
# CELL(abcABC): 1322.94304  1322.94304  1322.94304    90.00000    90.00000    90.00000  Step:        8500  Bead:       5 positions{angstrom}  cell{angstrom}
       E -3.40090e+01  1.01980e+01 -7.58563e+00
       E  5.62681e+01 -1.17116e-02  1.13649e+01
       E  4.73646e+01 -1.41749e+01  3.80148e+01
3
# CELL(abcABC): 1322.94304  1322.94304  1322.94304    90.00000    90.00000    90.00000  Step:        8600  Bead:       5 positions{angstrom}  cell{angstrom}
       E -4.18066e+01  2.45949e+01 -2.72536e+00
       E  4.06448e+01  4.06446e+01 -1.23753e+01
       E  3.54359e+01 -1.68924e+01  3.83452e+01
3
# CELL(abcABC): 1322.94304  1322.94304  1322.94304    90.00000    90.00000    90.00000  Step:        8700  Bead:       5 positions{angstrom}  cell{angstrom}
       E -8.02083e-01  2.78610e+01 -2.52742e+01
       E  4.52432e+01 -1.76118e+01  7.29556e+00
       E  5.24137e+01 -3.18124e+01  2.23683e+01
3
# CELL(abcABC): 1322.94304  1322.94304  1322.94304    90.00000    90.00000    90.00000  Step:        8800  Bead:       5 positions{angstrom}  cell{angstrom}
       E -2.22252e+01  3.49074e+01  9.05271e+00
       E  4.25164e+00  1.64682e+01 -3.78096e+00
       E  3.41799e+01 -7.63488e+01  6.63059e+01
3
# CELL(abcABC): 1322.94304  1322.94304  1322.94304    90.00000    90.00000    90.00000  Step:        8900  Bead:       5 positions{angstrom}  cell{angstrom}
       E  7.87408e+00  3.04156e+01  2.30062e+01
       E -1.73720e+01 -4.61139e+01  4.67788e+01
       E  1.54629e+01 -5.75152e+01  3.23411e+01
3
# CELL(abcABC): 1322.94304  1322.94304  1322.94304    90.00000    90.00000    90.00000  Step:        9000  Bead:       5 positions{angstrom}  cell{angstrom}
       E -1.87256e+01  3.73189e+01  1.73755e+01
       E -5.34026e+01 -5.05741e+01  5.43571e+01
       E  1.60385e+01 -7.43156e+01 -1.74087e+01
3
# CELL(abcABC): 1322.94304  1322.94304  1322.94304    90.00000    90.00000    90.00000  Step:        9100  Bead:       5 positions{angstrom}  cell{angstrom}
       E  2.09309e+01  2.66739e+01  7.00275e+01
       E -3.95863e+01 -3.01202e+01  3.86578e+01
       E -7.92589e+00 -5.75950e+01 -2.17670e+01
3
# CELL(abcABC): 1322.94304  1322.94304  1322.94304    90.00000    90.00000    90.00000  Step:        9200  Bead:       5 positions{angstrom}  cell{angstrom}
       E  2.80979e+00  5.61987e+01  8.42689e-01
       E  5.87938e-01  2.43650e+01  3.39173e+01
       E  1.25589e+01 -2.58401e+01  1.23199e+01
3
# CELL(abcABC): 1322.94304  1322.94304  1322.94304    90.00000    90.00000    90.00000  Step:        9300  Bead:       5 positions{angstrom}  cell{angstrom}
       E  7.33874e+00  3.65189e+01 -3.34886e+01
       E  7.36441e+00 -4.53299e+01  1.52364e+01
       E  5.11803e+01 -8.16134e+00 -1.89231e+01
3
# CELL(abcABC): 1322.94304  1322.94304  1322.94304    90.00000    90.00000    90.00000  Step:        9400  Bead:       5 positions{angstrom}  cell{angstrom}
       E  1.07770e+01  4.44817e+01 -4.41807e+01
       E  3.66118e+00 -3.59080e+01  2.14518e+01
       E  2.38682e+01 -3.86419e+01  8.22397e+00
3
# CELL(abcABC): 1322.94304  1322.94304  1322.94304    90.00000    90.00000    90.00000  Step:        9500  Bead:       5 positions{angstrom}  cell{angstrom}
       E  3.35278e+01  1.35538e+01 -3.12201e+01
       E  4.25415e+01 -1.13911e+01  4.03088e+00
       E  2.32026e+00 -4.21060e+01 -1.22988e+00
3
# CELL(abcABC): 1322.94304  1322.94304  1322.94304    90.00000    90.00000    90.00000  Step:        9600  Bead:       5 positions{angstrom}  cell{angstrom}
       E -2.16862e+01 -1.19987e+01 -5.24710e+01
       E  4.95099e+01 -4.93376e+01  4.08524e+01
       E -1.26170e+01 -5.19420e+00  8.58437e+00
3
# CELL(abcABC): 1322.94304  1322.94304  1322.94304    90.00000    90.00000    90.00000  Step:        9700  Bead:       5 positions{angstrom}  cell{angstrom}
       E -4.85519e+01 -2.39987e+01 -8.72429e+01
       E  1.54390e+01 -6.51771e+01  5.44838e+01
       E  1.60747e+01 -3.68460e+01  1.51709e+01
3
# CELL(abcABC): 1322.94304  1322.94304  1322.94304    90.00000    90.00000    90.00000  Step:        9800  Bead:       5 positions{angstrom}  cell{angstrom}
       E -2.80130e+01 -3.49526e+01 -6.87535e+01
       E  3.70034e+01 -9.95512e+01 -9.66613e+00
       E -1.23523e+01 -3.18093e+01  3.20714e+01
3