3
# CELL(abcABC): 1322.94304  1322.94304  1322.94304    90.00000    90.00000    90.00000  Step:           0  Bead:      16 positions{angstrom}  cell{angstrom}
       E  0.00000e+00  0.00000e+00  0.00000e+00
       E  0.00000e+00  0.00000e+00  0.00000e+00
       E  0.00000e+00  0.00000e+00  0.00000e+00
3
# CELL(abcABC): 1322.94304  1322.94304  1322.94304    90.00000    90.00000    90.00000  Step:         100  Bead:      16 positions{angstrom}  cell{angstrom}
       E  1.74147e+01 -1.49163e+00  2.30511e+01
       E  1.23960e+01 -2.36294e+01  3.39916e+00
       E -1.61502e+01  1.10516e+01 -2.44633e+01
3
# CELL(abcABC): 1322.94304  1322.94304  1322.94304    90.00000    90.00000    90.00000  Step:         200  Bead:      16 positions{angstrom}  cell{angstrom}
       E  7.33320e+00  1.09334e+01  1.88204e+01
       E -2.83147e+00 -2.57887e+01 -1.37935e+01
       E -2.60456e-01  2.28364e+01 -3.11295e+01
3
# CELL(abcABC): 1322.94304  1322.94304  1322.94304    90.00000    90.00000    90.00000  Step:         300  Bead:      16 positions{angstrom}  cell{angstrom}
       E -2.80672e+01 -4.02307e+00  1.72294e+01
       E  2.08481e+01 -4.24905e+00 -2.05914e+01
       E -1.43540e+01  4.47358e+01 -1.77029e+01
3
# CELL(abcABC): 1322.94304  1322.94304  1322.94304    90.00000    90.00000    90.00000  Step:         400  Bead:      16 positions{angstrom}  cell{angstrom}
       E -1.45012e+01  2.93276e+01  7.81890e+00
       E  2.27094e+01  1.07543e+01 -1.92728e+01
       E -3.83743e+01  3.70982e+01  1.51263e+01
3
# CELL(abcABC): 1322.94304  1322.94304  1322.94304    90.00000    90.00000    90.00000  Step:         500  Bead:      16 positions{angstrom}  cell{angstrom}
       E -2.27729e+01  2.08879e+00  6.78591e+00
       E  4.75543e+01  1.17731e+01 -9.54221e+00
       E -2.08734e+01  2.74354e-01  3.23505e+01
3
# CELL(abcABC): 1322.94304  1322.94304  1322.94304    90.00000    90.00000    90.00000  Step:         600  Bead:      16 positions{angstrom}  cell{angstrom}
       E -1.09437e+01 -3.19119e+01 -2.86778e+01
       E  3.05848e+01 -4.42035e+00  1.08882e+00
       E -1.93066e+01  1.01318e+01  2.65271e+01
3
# CELL(abcABC): 1322.94304  1322.94304  1322.94304    90.00000    90.00000    90.00000  Step:         700  Bead:      16 positions{angstrom}  cell{angstrom}
       E -1.23991e+01 -9.43478e-01 -5.84958e+00
       E  3.24480e+01  4.62145e+01  1.88801e+00
       E -4.31565e+01 -1.27220e+01  2.26361e+01
3
# CELL(abcABC): 1322.94304  1322.94304  1322.94304    90.00000    90.00000    90.00000  Step:         800  Bead:      16 positions{angstrom}  cell{angstrom}
       E  9.74406e+00  1.07879e+01 -1.02725e+01
       E  1.39479e+01  3.42199e+01  1.74629e+01
       E -5.12860e+01 -1.45844e+01  7.39860e+01
3
# CELL(abcABC): 1322.94304  1322.94304  1322.94304    90.00000    90.00000    90.00000  Step:         900  Bead:      16 positions{angstrom}  cell{angstrom}
       E -1.30476e+01  3.42290e+01 -3.73715e+01
       E  2.84689e+01  2.29726e+01 -9.87899e+00
       E -4.94213e+01 -2.92963e+00  7.27500e+01
3
# CELL(abcABC): 1322.94304  1322.94304  1322.94304    90.00000    90.00000    90.00000  Step:        1000  Bead:      16 positions{angstrom}  cell{angstrom}
       E -4.04931e+00  8.01488e+00 -6.54301e+01
       E  3.47654e+01 -1.16581e+01 -3.43308e+01
       E -6.16108e+01 -1.74400e+01  7.06384e+01
3
# CELL(abcABC): 1322.94304  1322.94304  1322.94304    90.00000    90.00000    90.00000  Step:        1100  Bead:      16 positions{angstrom}  cell{angstrom}
       E  2.53954e+01 -4.72612e+00 -6.71426e+01
       E  9.17782e+00  1.72202e+00 -4.22611e+01
       E -4.15099e+01  4.92194e+01  5.14880e+01
3
# CELL(abcABC): 1322.94304  1322.94304  1322.94304    90.00000    90.00000    90.00000  Step:        1200  Bead:      16 positions{angstrom}  cell{angstrom}
       E  1.29511e+01  1.69508e+01 -9.15018e+01
       E  2.24076e+01 -5.00001e+01 -2.28834e+01
       E -1.20934e+01  3.83258e+01  6.35220e+01
3
# CELL(abcABC): 1322.94304  1322.94304  1322.94304    90.00000    90.00000    90.00000  Step:        1300  Bead:      16 positions{angstrom}  cell{angstrom}
       E -6.83352e+00  2.90348e+01 -9.11645e+01
       E  5.51187e+01 -2.66039e+01 -4.22419e+01
       E -7.84037e+00  7.43604e+00  9.19147e+00
3
# CELL(abcABC): 1322.94304  1322.94304  1322.94304    90.00000    90.00000    90.00000  Step:        1400  Bead:      16 positions{angstrom}  cell{angstrom}
       E -1.21955e+01  4.56179e+01 -6.74471e+01
       E  8.35524e+00 -2.22882e+01 -4.15367e+01
       E  1.27391e+01 -8.76404e-01  1.44449e+01
3
# CELL(abcABC): 1322.94304  1322.94304  1322.94304    90.00000    90.00000    90.00000  Step:        1500  Bead:      16 positions{angstrom}  cell{angstrom}
       E  9.00488e-01  1.82577e+01 -5.39206e+01
       E -2.16519e+01  1.44741e+01 -3.42565e+01
       E -6.43601e+00  1.72120e+01  2.91000e+01
3
# CELL(abcABC): 1322.94304  1322.94304  1322.94304    90.00000    90.00000    90.00000  Step:        1600  Bead:      16 positions{angstrom}  cell{angstrom}
       E -2.75051e+01  5.71802e+01 -4.83521e+01
       E  1.47172e+01  3.48059e+01 -3.60591e+01
       E -3.02492e+01  3.02978e+01  3.72868e+01
3
# CELL(abcABC): 1322.94304  1322.94304  1322.94304    90.00000    90.00000    90.00000  Step:        1700  Bead:      16 positions{angstrom}  cell{angstrom}
       E  3.04918e+01  2.37174e+01  3.01918e+01
       E -1.25607e+01  4.63077e+01  9.71144e+00
       E -4.47639e+01  5.12682e+01  2.31266e+01
3
# CELL(abcABC): 1322.94304  1322.94304  1322.94304    90.00000    90.00000    90.00000  Step:        1800  Bead:      16 positions{angstrom}  cell{angstrom}
       E  1.61473e+01  2.31176e+01  2.25059e+01
       E -4.38573e+01  3.93756e+01  2.00241e+01
       E -8.70855e+01  8.54223e+01  5.51152e+01
3
# CELL(abcABC): 1322.94304  1322.94304  1322.94304    90.00000    90.00000    90.00000  Step:        1900  Bead:      16 positions{angstrom}  cell{angstrom}
       E  9.17434e+00  2.36567e+01  2.72497e+01
       E -5.55030e+01  3.27771e+01  3.02684e+00
       E -6.46758e+01  5.86638e+01  3.65521e+01
3
# CELL(abcABC): 1322.94304  1322.94304  1322.94304    90.00000    90.00000    90.00000  Step:        2000  Bead:      16 positions{angstrom}  cell{angstrom}
       E -2.80222e+01 -2.02303e+01  5.27967e+01
       E -4.08458e+01  4.29006e+01  2.01659e+01
       E -1.00322e+02  7.79467e+01  4.84516e+01
3
# CELL(abcABC): 1322.94304  1322.94304  1322.94304    90.00000    90.00000    90.00000  Step:        2100  Bead:      16 positions{angstrom}  cell{angstrom}
       E -3.11378e+01 -2.02645e+01  6.33283e+01
       E -4.35498e+01  2.67603e+01  1.14412e+01
       E -7.04397e+01  8.42204e+01  2.44664e+01
3
# CELL(abcABC): 1322.94304  1322.94304  1322.94304    90.00000    90.00000    90.00000  Step:        2200  Bead:      16 positions{angstrom}  cell{angstrom}
       E -3.67540e+01 -3.64832e+01  6.94036e+01
       E -1.47823e+01 -3.54430e+01 -1.76452e+01
       E -4.49370e+01  5.17674e+01  2.89696e-01
3
# CELL(abcABC): 1322.94304  1322.94304  1322.94304    90.00000    90.00000    90.00000  Step:        2300  Bead:      16 positions{angstrom}  cell{angstrom}
       E -4.12505e+01 -6.78194e+01  6.87485e+01
       E -2.64950e+00 -2.75747e+01  2.41450e+00
       E -2.20990e+01  4.82350e+01  3.52883e+01
3
# CELL(abcABC): 1322.94304  1322.94304  1322.94304    90.00000    90.00000    90.00000  Step:        2400  Bead:      16 positions{angstrom}  cell{angstrom}
       E -4.56542e+01 -2.79425e+01  2.26907e+00
       E  2.60959e+00 -1.10716e+01 -4.20549e+00
       E -2.44782e+01  4.20353e+01  2.64373e+01
3
# CELL(abcABC): 1322.94304  1322.94304  1322.94304    90.00000    90.00000    90.00000  Step:        2500  Bead:      16 positions{angstrom}  cell{angstrom}
       E -2.69757e+01 -7.22736e-01  3.06584e+01
       E  2.40012e+01 -4.59750e+01 -6.24549e+01
       E  2.35532e+01  9.37779e+00  3.44365e+01
3
# CELL(abcABC): 1322.94304  1322.94304  1322.94304    90.00000    90.00000    90.00000  Step:        2600  Bead:      16 positions{angstrom}  cell{angstrom}
       E -2.13694e+01 -2.34660e+01  2.51218e+01
       E -5.89383e+01 -6.36076e+01 -5.62931e+01
       E  3.06967e+00 -2.61744e+01  3.79595e+01
3
# CELL(abcABC): 1322.94304  1322.94304  1322.94304    90.00000    90.00000    90.00000  Step:        2700  Bead:      16 positions{angstrom}  cell{angstrom}
       E -3.55280e+01  6.00140e+00  1.16598e+01
       E -3.82328e+01 -4.22317e+01 -2.44609e+01
       E  4.53282e+01 -9.97849e-01  2.12530e+01
3
# CELL(abcABC): 1322.94304  1322.94304  1322.94304    90.00000    90.00000    90.00000  Step:        2800  Bead:      16 positions{angstrom}  cell{angstrom}
       E -3.11881e+01 -3.34665e+00  3.16606e+01
       E -5.92805e+01 -7.79509e+01 -3.47435e+01
       E  2.21528e+01  9.17268e-02  1.18830e+01
3
# CELL(abcABC): 1322.94304  1322.94304  1322.94304    90.00000    90.00000    90.00000  Step:        2900  Bead:      16 positions{angstrom}  cell{angstrom}
       E -7.71597e+01 -1.42477e+00  5.86944e+01
       E -7.24594e+01 -7.47873e+01 -4.94427e+01
       E -2.91000e+00  4.38256e+00  2.42469e+01
3
# CELL(abcABC): 1322.94304  1322.94304  1322.94304    90.00000    90.00000    90.00000  Step:        3000  Bead:      16 positions{angstrom}  cell{angstrom}
       E -2.43828e+01 -8.05737e+00  6.66255e+01
       E -5.78476e+01 -7.34955e+01  1.34783e+01
       E  1.59028e+01  4.34778e+01 -7.13811e-01
3
# CELL(abcABC): 1322.94304  1322.94304  1322.94304    90.00000    90.00000    90.00000  Step:        3100  Bead:      16 positions{angstrom}  cell{angstrom}
       E -5.51413e+01 -2.58740e+01  2.73155e+01
       E -9.78898e+01 -4.63954e+01 -1.11653e+00
       E  4.31940e+01  7.12413e+01  1.93495e+01
3
# CELL(abcABC): 1322.94304  1322.94304  1322.94304    90.00000    90.00000    90.00000  Step:        3200  Bead:      16 positions{angstrom}  cell{angstrom}
       E -3.31030e+01  9.68163e+00 -1.17374e+01
       E -9.76193e+01 -1.80375e+01  4.99726e+01
       E  9.27147e+01  6.54201e+01  2.88755e+01
3
# CELL(abcABC): 1322.94304  1322.94304  1322.94304    90.00000    90.00000    90.00000  Step:        3300  Bead:      16 positions{angstrom}  cell{angstrom}
       E -1.93248e+01 -1.05689e+01 -8.59162e+00
       E -7.97008e+01 -5.46227e+01  5.76422e+01
       E  3.00228e+01  1.11409e+02  6.11736e+01
3
# CELL(abcABC): 1322.94304  1322.94304  1322.94304    90.00000    90.00000    90.00000  Step:        3400  Bead:      16 positions{angstrom}  cell{angstrom}
       E -8.51785e+01 -1.06463e+01  3.50180e+01
       E -7.95494e+01 -4.02051e+01  7.24143e+01
       E  1.35791e+01  1.12143e+02  5.84182e+01
3
# CELL(abcABC): 1322.94304  1322.94304  1322.94304    90.00000    90.00000    90.00000  Step:        3500  Bead:      16 positions{angstrom}  cell{angstrom}
       E -8.70959e+01  1.58165e+01  4.52041e+01
       E -3.00287e+01 -2.69653e+01  2.06511e+01
       E  3.44585e+01  5.16766e+01  4.87696e+01
3
# CELL(abcABC): 1322.94304  1322.94304  1322.94304    90.00000    90.00000    90.00000  Step:        3600  Bead:      16 positions{angstrom}  cell{angstrom}
       E -8.15078e+01  9.09151e+00  2.25494e+01
       E -9.68315e+00 -1.63326e+01  2.00601e+01
       E  3.13178e+01  5.25870e+01  2.08885e+01
3
# CELL(abcABC): 1322.94304  1322.94304  1322.94304    90.00000    90.00000    90.00000  Step:        3700  Bead:      16 positions{angstrom}  cell{angstrom}
       E -7.11781e+01 -1.96659e+01 -1.26969e+01
       E -2.88419e+01 -1.50514e+01  1.11126e+01
       E -3.27053e+01  6.50204e+01 -4.84389e+00
3
# CELL(abcABC): 1322.94304  1322.94304  1322.94304    90.00000    90.00000    90.00000  Step:        3800  Bead:      16 positions{angstrom}  cell{angstrom}
       E -9.11515e+01 -7.46567e+00 -3.33102e+01
       E -1.53787e+01 -5.86432e+01 -1.58665e+01
       E -7.57240e+01  2.46701e+01 -1.03990e+01
3
# CELL(abcABC): 1322.94304  1322.94304  1322.94304    90.00000    90.00000    90.00000  Step:        3900  Bead:      16 positions{angstrom}  cell{angstrom}
       E -9.95458e+01  6.20186e+00 -4.93301e+01
       E -3.37861e+01 -3.51818e+01 -5.35029e+00
       E -3.38608e+01  1.95765e+01 -2.52812e+01
3
# CELL(abcABC): 1322.94304  1322.94304  1322.94304    90.00000    90.00000    90.00000  Step:        4000  Bead:      16 positions{angstrom}  cell{angstrom}
       E -1.09665e+02  3.08314e+01 -4.82194e+01
       E -2.53190e+01 -5.79597e+00  4.77372e+01
       E -5.47264e+00  1.96294e+01  1.37159e+01
3
# CELL(abcABC): 1322.94304  1322.94304  1322.94304    90.00000    90.00000    90.00000  Step:        4100  Bead:      16 positions{angstrom}  cell{angstrom}
       E -6.89715e+01  6.45687e+01 -6.00810e+01
       E -5.90959e+01  3.52982e+01  3.36053e+01
       E -1.48107e+01 -3.03205e+01  2.53197e+01
3
# CELL(abcABC): 1322.94304  1322.94304  1322.94304    90.00000    90.00000    90.00000  Step:        4200  Bead:      16 positions{angstrom}  cell{angstrom}
       E -6.37264e+01  1.71770e+01 -8.07141e+01
       E -5.06936e+01  2.78501e+01  3.59501e+01
       E  3.17000e+01 -1.40979e+01  5.55456e+01
3
# CELL(abcABC): 1322.94304  1322.94304  1322.94304    90.00000    90.00000    90.00000  Step:        4300  Bead:      16 positions{angstrom}  cell{angstrom}
       E -7.93035e+01  5.83949e+01 -5.25760e+01
       E -4.03565e+01  5.84705e+01  5.04274e+01
       E  6.42463e+00 -1.59732e+01  5.42991e+01
3
# CELL(abcABC): 1322.94304  1322.94304  1322.94304    90.00000    90.00000    90.00000  Step:        4400  Bead:      16 positions{angstrom}  cell{angstrom}
       E -5.24052e+01  1.58109e+01 -6.00525e+01
       E -2.91948e+01  5.82307e+01  1.01564e+01
       E -8.04970e+00 -2.58291e+01 -3.44502e+00
3
# CELL(abcABC): 1322.94304  1322.94304  1322.94304    90.00000    90.00000    90.00000  Step:        4500  Bead:      16 positions{angstrom}  cell{angstrom}
       E -8.69297e+01  2.88317e+01 -8.53536e+01
       E -4.95468e+01  9.10976e+01 -7.39883e+00
       E  1.10995e+00 -2.02525e+01  1.68081e+01
3
# CELL(abcABC): 1322.94304  1322.94304  1322.94304    90.00000    90.00000    90.00000  Step:        4600  Bead:      16 positions{angstrom}  cell{angstrom}
       E -2.72804e+01  1.48320e+01 -7.94654e+01
       E -4.84426e+01  9.47347e+01 -2.83876e+01
       E -2.08020e+00 -1.17658e+01 -1.28952e+01
3
# CELL(abcABC): 1322.94304  1322.94304  1322.94304    90.00000    90.00000    90.00000  Step:        4700  Bead:      16 positions{angstrom}  cell{angstrom}
       E -2.19688e+01  4.17830e+01 -6.49385e+01
       E -5.31257e+01  6.00347e+01 -2.66122e+01
       E  4.30693e+01 -2.96639e+01 -9.25328e-01
3
# CELL(abcABC): 1322.94304  1322.94304  1322.94304    90.00000    90.00000    90.00000  Step:        4800  Bead:      16 positions{angstrom}  cell{angstrom}
       E -2.89383e+01  1.15568e+01 -2.92969e+01
       E -4.97832e+01  1.88698e+01 -2.07555e+01
       E  2.47496e+01 -1.05924e+01  1.36595e+01
3
# CELL(abcABC): 1322.94304  1322.94304  1322.94304    90.00000    90.00000    90.00000  Step:        4900  Bead:      16 positions{angstrom}  cell{angstrom}
       E  1.17389e+01  3.20801e+01  7.94145e+00
       E -2.96877e+01  1.87439e+01 -2.19157e+01
       E  3.48222e+01  4.82755e+00  6.10427e+00
3
# CELL(abcABC): 1322.94304  1322.94304  1322.94304    90.00000    90.00000    90.00000  Step:        5000  Bead:      16 positions{angstrom}  cell{angstrom}
       E  1.26841e+01 -1.23877e+01  1.28443e+01
       E -3.32767e+01  7.60932e-01 -4.92702e+01
       E  2.76584e+01 -1.84894e+01 -6.82943e+00
3
# CELL(abcABC): 1322.94304  1322.94304  1322.94304    90.00000    90.00000    90.00000  Step:        5100  Bead:      16 positions{angstrom}  cell{angstrom}
       E  5.75741e+00  4.58818e+01  2.15232e+01
       E -3.46161e+01  2.65895e+01 -5.01754e+01
       E -6.85333e+00  1.91616e-02 -2.06268e+01
3
# CELL(abcABC): 1322.94304  1322.94304  1322.94304    90.00000    90.00000    90.00000  Step:        5200  Bead:      16 positions{angstrom}  cell{angstrom}
       E  1.58887e+01  7.99365e-03  2.91457e+01
       E -3.83516e+01  1.42172e+01 -2.93392e+01
       E -2.16863e+01  4.12674e+01 -4.58899e-01
3
# CELL(abcABC): 1322.94304  1322.94304  1322.94304    90.00000    90.00000    90.00000  Step:        5300  Bead:      16 positions{angstrom}  cell{angstrom}
       E -5.68597e-01  1.10787e+01  3.73635e+01
       E -3.11998e+01  4.98948e+01  1.11600e+01
       E -4.79058e+01  4.44814e+01  2.32655e+01
3
# CELL(abcABC): 1322.94304  1322.94304  1322.94304    90.00000    90.00000    90.00000  Step:        5400  Bead:      16 positions{angstrom}  cell{angstrom}
       E  2.19038e+01 -4.06003e+01  2.50583e+01
       E -1.21378e+01  3.14604e+00  2.45816e+00
       E -3.74169e+01  6.27866e-01  3.28583e+01
3
# CELL(abcABC): 1322.94304  1322.94304  1322.94304    90.00000    90.00000    90.00000  Step:        5500  Bead:      16 positions{angstrom}  cell{angstrom}
       E -1.03359e+00  1.56564e+01  5.90944e+00
       E -2.34343e+01 -6.38810e-01 -9.53268e+00
       E -2.68176e+01 -9.14388e-01  4.64828e+01
3
# CELL(abcABC): 1322.94304  1322.94304  1322.94304    90.00000    90.00000    90.00000  Step:        5600  Bead:      16 positions{angstrom}  cell{angstrom}
       E  1.51582e+01 -3.33374e+00 -3.28461e+00
       E -6.90153e+01 -1.25150e+01 -8.59428e+00
       E -5.07231e+01 -4.36282e+00  1.65076e+01
3
# CELL(abcABC): 1322.94304  1322.94304  1322.94304    90.00000    90.00000    90.00000  Step:        5700  Bead:      16 positions{angstrom}  cell{angstrom}
       E  4.87474e+01 -6.11844e+01 -2.03969e+01
       E -6.51640e+01  2.76754e+01  2.31932e+01
       E -3.60893e+01 -3.34688e+00  1.40671e+01
3
# CELL(abcABC): 1322.94304  1322.94304  1322.94304    90.00000    90.00000    90.00000  Step:        5800  Bead:      16 positions{angstrom}  cell{angstrom}
       E  6.73093e+00 -1.31614e+01 -6.81741e+00
       E -3.71403e+01  3.28425e+01 -1.66187e+01
       E -5.48141e+01  1.28335e+01 -1.77577e+01
3
# CELL(abcABC): 1322.94304  1322.94304  1322.94304    90.00000    90.00000    90.00000  Step:        5900  Bead:      16 positions{angstrom}  cell{angstrom}
       E  3.23763e+01  1.79154e+01 -1.41054e+01
       E  2.63272e+00  2.50030e+01 -8.77621e-01
       E -8.00071e+00 -9.81318e+00 -1.70750e+01
3
# CELL(abcABC): 1322.94304  1322.94304  1322.94304    90.00000    90.00000    90.00000  Step:        6000  Bead:      16 positions{angstrom}  cell{angstrom}
       E  3.51397e+01 -2.07950e+01  1.63141e+01
       E  9.25428e+00 -5.86102e+00  2.87761e+01
       E -1.89800e+01 -1.38117e+01  1.81015e+01
3
# CELL(abcABC): 1322.94304  1322.94304  1322.94304    90.00000    90.00000    90.00000  Step:        6100  Bead:      16 positions{angstrom}  cell{angstrom}
       E -7.35792e+00 -3.61207e+01 -4.23028e+01
       E  3.54765e+01  1.74923e+01  3.85961e+01
       E  1.24569e+01 -5.70024e+00 -2.30659e+01
3
# CELL(abcABC): 1322.94304  1322.94304  1322.94304    90.00000    90.00000    90.00000  Step:        6200  Bead:      16 positions{angstrom}  cell{angstrom}
       E -6.21769e+00 -2.09909e+01 -7.79302e+01
       E  6.60185e+01  3.18989e+01  1.59925e+01
       E  2.04724e+01  2.77271e+00  2.28700e+01
3
# CELL(abcABC): 1322.94304  1322.94304  1322.94304    90.00000    90.00000    90.00000  Step:        6300  Bead:      16 positions{angstrom}  cell{angstrom}
       E -6.63788e+00 -5.20481e+01 -1.02243e+02
       E  7.35878e+01  2.71876e+01 -2.07611e+01
       E  5.31570e+00 -1.69145e+01  2.00495e+01
3
# CELL(abcABC): 1322.94304  1322.94304  1322.94304    90.00000    90.00000    90.00000  Step:        6400  Bead:      16 positions{angstrom}  cell{angstrom}
       E  9.02607e+00 -5.75444e+01 -8.82964e+01
       E  3.42239e+01  1.08157e+01 -2.18213e+01
       E  5.91253e+00 -9.04233e-01 -6.86027e-01
3
# CELL(abcABC): 1322.94304  1322.94304  1322.94304    90.00000    90.00000    90.00000  Step:        6500  Bead:      16 positions{angstrom}  cell{angstrom}
       E  1.78664e+01 -7.29836e+01 -9.00699e+01
       E -1.30862e+01  4.25293e+00 -9.66672e+00
       E  3.83395e+01 -3.77232e+01 -1.57643e+01
3
# CELL(abcABC): 1322.94304  1322.94304  1322.94304    90.00000    90.00000    90.00000  Step:        6600  Bead:      16 positions{angstrom}  cell{angstrom}
       E  2.47399e+00 -7.58918e+01 -7.52472e+01
       E  2.91965e+01 -3.21517e+01 -6.78627e+00
       E  4.03190e+01 -2.67821e+01 -2.27510e+00
3
# CELL(abcABC): 1322.94304  1322.94304  1322.94304    90.00000    90.00000    90.00000  Step:        6700  Bead:      16 positions{angstrom}  cell{angstrom}
       E  1.24311e+01 -9.68401e+01 -7.54820e+01
       E  6.82148e+00  1.07840e+01 -1.10189e+01
       E -1.40285e+01 -1.34099e+01  1.71387e+01
3
# CELL(abcABC): 1322.94304  1322.94304  1322.94304    90.00000    90.00000    90.00000  Step:        6800  Bead:      16 positions{angstrom}  cell{angstrom}
       E -1.91308e+01 -1.10469e+02 -6.73576e+01
       E  2.17535e+01 -9.36635e+00 -1.98947e+01
       E  2.78607e+01 -5.74148e+00  1.44700e+01
3
# CELL(abcABC): 1322.94304  1322.94304  1322.94304    90.00000    90.00000    90.00000  Step:        6900  Bead:      16 positions{angstrom}  cell{angstrom}
       E  7.14098e+00 -9.25575e+01 -5.57304e+01
       E  1.73488e+01 -3.82391e+01 -2.55040e+01
       E -1.40594e+01  1.65088e+01  3.22565e+01
3
# CELL(abcABC): 1322.94304  1322.94304  1322.94304    90.00000    90.00000    90.00000  Step:        7000  Bead:      16 positions{angstrom}  cell{angstrom}
       E  5.36459e+01 -9.46852e+01 -9.68001e+00
       E -1.35470e+01 -3.73451e+01  2.61493e+01
       E -1.06925e+01  4.92761e+01 -2.69663e+01
3
# CELL(abcABC): 1322.94304  1322.94304  1322.94304    90.00000    90.00000    90.00000  Step:        7100  Bead:      16 positions{angstrom}  cell{angstrom}
       E  4.79539e+01 -1.78725e+01  5.18534e+00
       E -1.58370e+01 -3.17292e+00  3.56355e+01
       E  4.39598e+01  1.98365e+01 -4.02039e+01
3
# CELL(abcABC): 1322.94304  1322.94304  1322.94304    90.00000    90.00000    90.00000  Step:        7200  Bead:      16 positions{angstrom}  cell{angstrom}
       E  5.04489e+01 -2.95591e+01 -1.91307e+01
       E -2.59712e+01  3.30403e+01  1.97784e+01
       E  4.18791e+01  4.86048e+01 -1.77896e+01
3
# CELL(abcABC): 1322.94304  1322.94304  1322.94304    90.00000    90.00000    90.00000  Step:        7300  Bead:      16 positions{angstrom}  cell{angstrom}
       E  1.65913e+01 -4.38692e+01 -5.92337e+01
       E -3.00457e+01  2.91561e+01  4.36992e+01
       E  3.70593e+01  4.40420e+01 -3.04254e+01
3
# CELL(abcABC): 1322.94304  1322.94304  1322.94304    90.00000    90.00000    90.00000  Step:        7400  Bead:      16 positions{angstrom}  cell{angstrom}
       E  3.79471e+01 -4.00251e+01 -6.00788e+01
       E -4.00351e+01  2.92692e+01  1.04990e+01
       E  3.80235e+01  2.52416e+01  1.73440e+01
3
# CELL(abcABC): 1322.94304  1322.94304  1322.94304    90.00000    90.00000    90.00000  Step:        7500  Bead:      16 positions{angstrom}  cell{angstrom}
       E  2.83531e+01 -8.98935e+01 -5.54852e+01
       E -5.51589e+01 -1.66232e+01  1.75047e+01
       E  4.44552e+01  2.44523e+01 -4.92597e+00
3
# CELL(abcABC): 1322.94304  1322.94304  1322.94304    90.00000    90.00000    90.00000  Step:        7600  Bead:      16 positions{angstrom}  cell{angstrom}
       E  2.88270e+01 -5.90091e+01 -2.75178e+01
       E -2.03751e+01 -2.79549e+01 -8.36303e+00
       E  1.80405e+01  1.85241e+01 -2.76213e+01
3
# CELL(abcABC): 1322.94304  1322.94304  1322.94304    90.00000    90.00000    90.00000  Step:        7700  Bead:      16 positions{angstrom}  cell{angstrom}
       E  2.17423e+01 -7.55124e+01 -2.99352e+01
       E -2.13146e+01 -5.76089e+01 -3.97794e+01
       E  7.09928e+01  4.55599e+01 -3.25048e+01
3
# CELL(abcABC): 1322.94304  1322.94304  1322.94304    90.00000    90.00000    90.00000  Step:        7800  Bead:      16 positions{angstrom}  cell{angstrom}
       E  2.63002e+01 -6.32236e+01 -3.36708e+01
       E -2.30277e+01 -3.50540e+01 -1.75578e+01
       E  4.38619e+01  2.99173e+01 -2.73576e+01
3
# CELL(abcABC): 1322.94304  1322.94304  1322.94304    90.00000    90.00000    90.00000  Step:        7900  Bead:      16 positions{angstrom}  cell{angstrom}
       E  2.29045e+01 -4.54636e+01 -1.95844e+01
       E  4.27946e+00  1.02873e+00 -1.69545e+01
       E  6.13859e+00 -1.26739e+01 -4.43138e+01
3
# CELL(abcABC): 1322.94304  1322.94304  1322.94304    90.00000    90.00000    90.00000  Step:        8000  Bead:      16 positions{angstrom}  cell{angstrom}
       E  4.45456e+00 -1.06931e+01 -3.01861e+01
       E -1.78847e+01  8.98866e+00 -1.21101e+01
       E  7.81423e+00 -1.27231e+01 -3.72009e+01
3
# CELL(abcABC): 1322.94304  1322.94304  1322.94304    90.00000    90.00000    90.00000  Step:        8100  Bead:      16 positions{angstrom}  cell{angstrom}
       E -1.21893e+01  1.61195e+01 -4.92014e+01
       E -4.27164e+01  1.90378e+01 -2.75024e+01
       E  3.05063e+01  6.18831e+00 -1.18554e+01
3
# CELL(abcABC): 1322.94304  1322.94304  1322.94304    90.00000    90.00000    90.00000  Step:        8200  Bead:      16 positions{angstrom}  cell{angstrom}
       E  2.18629e+01  4.04426e+01 -4.80728e+01
       E -3.16715e+01 -2.64253e+01 -1.58131e+01
       E -1.28994e+01 -4.28525e+01  2.48150e+01
3
# CELL(abcABC): 1322.94304  1322.94304  1322.94304    90.00000    90.00000    90.00000  Step:        8300  Bead:      16 positions{angstrom}  cell{angstrom}
       E  1.60933e+01  4.11895e+01 -3.54699e+01
       E -1.83990e+01  1.98027e+01 -2.27439e+01
       E  1.81124e+01 -5.17371e+01  5.83990e+01
3
# CELL(abcABC): 1322.94304  1322.94304  1322.94304    90.00000    90.00000    90.00000  Step:        8400  Bead:      16 positions{angstrom}  cell{angstrom}
       E -1.45882e+01  2.99159e+01 -3.15666e+01
       E  2.09111e-01  3.17729e+01 -4.30937e+00
       E  6.11051e+00 -5.02299e+01  6.12995e+01
3
# CELL(abcABC): 1322.94304  1322.94304  1322.94304    90.00000    90.00000    90.00000  Step:        8500  Bead:      16 positions{angstrom}  cell{angstrom}
       E -7.89442e+00 -2.35966e+01  1.55385e+01
       E  3.73449e+01  9.54918e-01 -4.30403e+01
       E  1.77537e+01 -3.31871e+01  6.37184e+01
3
# CELL(abcABC): 1322.94304  1322.94304  1322.94304    90.00000    90.00000    90.00000  Step:        8600  Bead:      16 positions{angstrom}  cell{angstrom}
       E  3.58863e+00 -1.26457e+01 -9.93637e+00
       E  3.48711e+01  7.46581e+00 -3.46671e+01
       E  5.60000e+00 -1.55470e+01  1.59442e+01
3
# CELL(abcABC): 1322.94304  1322.94304  1322.94304    90.00000    90.00000    90.00000  Step:        8700  Bead:      16 positions{angstrom}  cell{angstrom}
       E  2.75748e-01 -1.18491e+01  1.78358e+00
       E  4.31289e+01  1.11867e+01 -5.00226e+01
       E  1.95450e+01 -2.44630e+01  3.66076e+01
3
# CELL(abcABC): 1322.94304  1322.94304  1322.94304    90.00000    90.00000    90.00000  Step:        8800  Bead:      16 positions{angstrom}  cell{angstrom}
       E -2.25405e+01  3.16541e+01  7.38572e+00
       E  1.98071e+01 -6.80490e+00 -1.78375e+01
       E  4.26247e+01 -3.95262e+01  4.42690e+01
3
# CELL(abcABC): 1322.94304  1322.94304  1322.94304    90.00000    90.00000    90.00000  Step:        8900  Bead:      16 positions{angstrom}  cell{angstrom}
       E -3.27173e+01  4.12592e+01  5.54556e+01
       E -3.54539e-01 -8.13579e+00  1.22578e+01
       E  2.39388e+01 -3.68765e+01  2.23162e+01
3
# CELL(abcABC): 1322.94304  1322.94304  1322.94304    90.00000    90.00000    90.00000  Step:        9000  Bead:      16 positions{angstrom}  cell{angstrom}
       E -2.63511e+01  3.74044e+01  4.23719e+01
       E -7.35336e+00  4.22943e+00  4.66345e+01
       E  4.96661e+01 -4.66509e+01  3.24020e+01
3
# CELL(abcABC): 1322.94304  1322.94304  1322.94304    90.00000    90.00000    90.00000  Step:        9100  Bead:      16 positions{angstrom}  cell{angstrom}
       E  9.22160e+00  5.74426e+00  3.56364e+01
       E  7.87428e+00 -2.22862e+01  7.63849e+01
       E  2.36410e+01 -6.67900e+00  1.59110e+01
3
# CELL(abcABC): 1322.94304  1322.94304  1322.94304    90.00000    90.00000    90.00000  Step:        9200  Bead:      16 positions{angstrom}  cell{angstrom}
       E  4.73531e+01  1.19228e+01  2.28993e+01
       E -3.11858e+01  2.13492e+01  5.14757e+01
       E  4.11443e+01 -6.07362e+01  5.85229e+00
3
# CELL(abcABC): 1322.94304  1322.94304  1322.94304    90.00000    90.00000    90.00000  Step:        9300  Bead:      16 positions{angstrom}  cell{angstrom}
       E  1.46924e+01  1.49817e+01  8.55554e+00
       E -5.33009e+01  1.39198e+00  2.25005e+01
       E  7.22816e+00 -5.71724e+01 -1.79673e+01
3
# CELL(abcABC): 1322.94304  1322.94304  1322.94304    90.00000    90.00000    90.00000  Step:        9400  Bead:      16 positions{angstrom}  cell{angstrom}
       E -8.27028e-01  6.39914e+01 -2.30608e+01
       E -4.58822e+01 -4.16828e+01  1.05356e+01
       E  1.72517e+01 -2.86363e+01 -3.71534e+00
3
# CELL(abcABC): 1322.94304  1322.94304  1322.94304    90.00000    90.00000    90.00000  Step:        9500  Bead:      16 positions{angstrom}  cell{angstrom}
       E  3.06999e+01  5.61090e+01 -7.17591e+01
       E -1.19143e+01 -3.92217e+01 -4.42564e+00
       E  3.04044e+01 -1.89151e+01  4.09975e+01
3
# CELL(abcABC): 1322.94304  1322.94304  1322.94304    90.00000    90.00000    90.00000  Step:        9600  Bead:      16 positions{angstrom}  cell{angstrom}
       E  1.56397e+01  6.84668e+00 -5.32243e+01
       E  1.69991e+01 -4.39390e+01  2.05408e+01
       E  4.55720e+00 -3.07593e+01 -4.43266e-01
3
# CELL(abcABC): 1322.94304  1322.94304  1322.94304    90.00000    90.00000    90.00000  Step:        9700  Bead:      16 positions{angstrom}  cell{angstrom}
       E  8.17341e+00 -5.27608e+01 -1.36438e+01
       E  3.56325e+01 -7.45911e+01  3.64336e+01
       E  1.47223e+01  1.09328e+01  1.10695e+01
3
# CELL(abcABC): 1322.94304  1322.94304  1322.94304    90.00000    90.00000    90.00000  Step:        9800  Bead:      16 positions{angstrom}  cell{angstrom}
       E -4.16467e+01 -5.31911e+01 -2.04476e+01
       E  2.86004e+01 -9.01729e+01  2.35006e+00
       E -7.71873e+00 -3.47003e+01  2.37837e+01
3