3
# CELL(abcABC): 1322.94304  1322.94304  1322.94304    90.00000    90.00000    90.00000  Step:           0  Bead:      30 positions{angstrom}  cell{angstrom}
       E  0.00000e+00  0.00000e+00  0.00000e+00
       E  0.00000e+00  0.00000e+00  0.00000e+00
       E  0.00000e+00  0.00000e+00  0.00000e+00
3
# CELL(abcABC): 1322.94304  1322.94304  1322.94304    90.00000    90.00000    90.00000  Step:         100  Bead:      30 positions{angstrom}  cell{angstrom}
       E -5.89299e+00 -5.18365e+01  3.12170e+00
       E -6.45041e-02 -5.10159e+00  5.55368e+00
       E  2.50290e+01  1.00379e+01 -7.79357e+00
3
# CELL(abcABC): 1322.94304  1322.94304  1322.94304    90.00000    90.00000    90.00000  Step:         200  Bead:      30 positions{angstrom}  cell{angstrom}
       E -1.54712e+01 -1.28105e+01  3.89908e+01
       E  2.52027e+01  1.02314e+01  2.30590e+01
       E -2.39998e+00  6.51835e+00 -6.08684e-01
3
# CELL(abcABC): 1322.94304  1322.94304  1322.94304    90.00000    90.00000    90.00000  Step:         300  Bead:      30 positions{angstrom}  cell{angstrom}
       E  2.23760e+01 -2.12138e+01  1.31359e+01
       E  3.43395e+01 -9.35173e+00  2.23814e+01
       E -3.83988e-01  4.53114e+01  6.27089e+00
3
# CELL(abcABC): 1322.94304  1322.94304  1322.94304    90.00000    90.00000    90.00000  Step:         400  Bead:      30 positions{angstrom}  cell{angstrom}
       E  3.49755e+01  3.89382e+00 -3.64179e+01
       E  4.18776e+01 -9.89608e+00 -6.06689e+00
       E  9.42184e+00  2.55790e+01  4.93189e+00
3
# CELL(abcABC): 1322.94304  1322.94304  1322.94304    90.00000    90.00000    90.00000  Step:         500  Bead:      30 positions{angstrom}  cell{angstrom}
       E  2.42006e+01  3.10896e+00 -1.77731e+01
       E  2.78588e+01 -1.19334e+01  2.60031e+01
       E -7.12983e+00  7.48323e+00  1.96357e+01
3
# CELL(abcABC): 1322.94304  1322.94304  1322.94304    90.00000    90.00000    90.00000  Step:         600  Bead:      30 positions{angstrom}  cell{angstrom}
       E  1.58717e+01 -4.46032e+00 -6.42220e-01
       E -3.75668e+01 -1.82707e+01  3.94498e+01
       E -7.17127e+00  3.61886e+01  2.48823e+01
3
# CELL(abcABC): 1322.94304  1322.94304  1322.94304    90.00000    90.00000    90.00000  Step:         700  Bead:      30 positions{angstrom}  cell{angstrom}
       E -1.28768e+01 -5.76979e+00 -4.35485e+01
       E -4.12913e+01 -3.51117e-01  3.72440e+01
       E -2.84615e+01  4.40869e+01  5.41944e+01
3
# CELL(abcABC): 1322.94304  1322.94304  1322.94304    90.00000    90.00000    90.00000  Step:         800  Bead:      30 positions{angstrom}  cell{angstrom}
       E  2.99228e+01  1.37836e+01 -3.55980e+01
       E  1.42086e+00 -5.01287e+00  2.70351e+01
       E -4.48184e+01  1.58539e+01  5.50073e+01
3
# CELL(abcABC): 1322.94304  1322.94304  1322.94304    90.00000    90.00000    90.00000  Step:         900  Bead:      30 positions{angstrom}  cell{angstrom}
       E  4.01905e+01  2.09011e+01 -1.38126e+01
       E  4.84874e+01  2.68788e+01  1.44825e+01
       E -7.02011e+01  5.29046e+01  1.04004e+02
3
# CELL(abcABC): 1322.94304  1322.94304  1322.94304    90.00000    90.00000    90.00000  Step:        1000  Bead:      30 positions{angstrom}  cell{angstrom}
       E  8.43907e+00  7.25972e+00 -1.45123e+01
       E  2.04798e+01 -8.65578e-01 -1.89718e+01
       E -1.35132e+01  8.36775e+00  1.20640e+02
3
# CELL(abcABC): 1322.94304  1322.94304  1322.94304    90.00000    90.00000    90.00000  Step:        1100  Bead:      30 positions{angstrom}  cell{angstrom}
       E  1.81405e+01  2.45031e+01  8.19734e+00
       E  4.25300e+01  1.91040e+01 -4.24322e+01
       E -2.63268e+00  1.19628e+01  6.17109e+01
3
# CELL(abcABC): 1322.94304  1322.94304  1322.94304    90.00000    90.00000    90.00000  Step:        1200  Bead:      30 positions{angstrom}  cell{angstrom}
       E -3.12187e+00  2.93124e+01 -3.19832e+01
       E  2.43624e+01 -9.01244e+00 -6.46011e+01
       E  2.12633e+01  3.64797e+01  3.58010e+01
3
# CELL(abcABC): 1322.94304  1322.94304  1322.94304    90.00000    90.00000    90.00000  Step:        1300  Bead:      30 positions{angstrom}  cell{angstrom}
       E -1.45250e+01  5.47730e+00 -5.72324e+01
       E  1.49288e+01 -2.64761e+01 -6.56808e+01
       E -1.89025e+01  5.17650e+01 -1.31146e-01
3
# CELL(abcABC): 1322.94304  1322.94304  1322.94304    90.00000    90.00000    90.00000  Step:        1400  Bead:      30 positions{angstrom}  cell{angstrom}
       E -1.17066e+01  3.50319e+01 -5.72636e+01
       E -1.08488e+01 -2.81899e+01 -7.47268e+01
       E -4.05203e+01  4.70777e+01  3.46498e+01
3
# CELL(abcABC): 1322.94304  1322.94304  1322.94304    90.00000    90.00000    90.00000  Step:        1500  Bead:      30 positions{angstrom}  cell{angstrom}
       E -4.26132e+01  5.19050e+01 -5.51908e+01
       E -2.83583e+01 -2.16815e+01 -4.39292e+01
       E -6.15110e-01  3.21334e+01  5.61446e+01
3
# CELL(abcABC): 1322.94304  1322.94304  1322.94304    90.00000    90.00000    90.00000  Step:        1600  Bead:      30 positions{angstrom}  cell{angstrom}
       E -3.70521e+01  6.70328e+01 -9.25713e+01
       E -2.09347e+01 -3.10879e+01  2.52797e+00
       E -1.66070e+01  4.39602e+01  3.27530e+01
3
# CELL(abcABC): 1322.94304  1322.94304  1322.94304    90.00000    90.00000    90.00000  Step:        1700  Bead:      30 positions{angstrom}  cell{angstrom}
       E -1.95077e+01  4.11535e+01 -1.74945e+01
       E -1.57171e+01 -2.53159e+01 -8.10713e+00
       E -4.12416e+01  1.55210e+01  8.06238e+00
3
# CELL(abcABC): 1322.94304  1322.94304  1322.94304    90.00000    90.00000    90.00000  Step:        1800  Bead:      30 positions{angstrom}  cell{angstrom}
       E -2.33421e+01  1.83781e+01  1.17238e+01
       E -5.09777e+01 -7.69417e+00  1.13503e+01
       E -1.92106e+01  1.75028e+01 -1.81218e+01
3
# CELL(abcABC): 1322.94304  1322.94304  1322.94304    90.00000    90.00000    90.00000  Step:        1900  Bead:      30 positions{angstrom}  cell{angstrom}
       E -3.19148e+01  2.32070e+01  1.04427e+01
       E -4.17207e+01 -2.15701e+01 -4.23820e+00
       E -5.79407e+01  2.65398e+01  3.80638e+00
3
# CELL(abcABC): 1322.94304  1322.94304  1322.94304    90.00000    90.00000    90.00000  Step:        2000  Bead:      30 positions{angstrom}  cell{angstrom}
       E  2.45889e+00 -1.92057e+01  4.14237e+01
       E -1.19642e+01 -1.70561e+01 -7.31740e+00
       E -4.71285e+01  4.76223e+01  1.19848e+01
3
# CELL(abcABC): 1322.94304  1322.94304  1322.94304    90.00000    90.00000    90.00000  Step:        2100  Bead:      30 positions{angstrom}  cell{angstrom}
       E -3.45950e-02 -7.01540e+01  2.59419e+01
       E -2.92894e+01 -2.13960e+01  1.03533e-01
       E -8.56787e+01  7.48278e+01 -1.88133e+01
3
# CELL(abcABC): 1322.94304  1322.94304  1322.94304    90.00000    90.00000    90.00000  Step:        2200  Bead:      30 positions{angstrom}  cell{angstrom}
       E -1.46541e+01 -9.10800e+01 -2.01472e+01
       E -4.81051e+01  8.80739e+00  1.52141e+01
       E -8.62883e+01  7.99275e+01  1.13860e+01
3
# CELL(abcABC): 1322.94304  1322.94304  1322.94304    90.00000    90.00000    90.00000  Step:        2300  Bead:      30 positions{angstrom}  cell{angstrom}
       E  2.10878e+01 -5.21733e+01 -1.29324e+01
       E -5.21268e+01 -1.87459e+01 -2.11777e+01
       E -4.77103e+01  6.39498e+01 -3.38295e+00
3
# CELL(abcABC): 1322.94304  1322.94304  1322.94304    90.00000    90.00000    90.00000  Step:        2400  Bead:      30 positions{angstrom}  cell{angstrom}
       E -3.63821e+01 -4.94022e+01  1.27268e+01
       E -3.43293e+01 -2.67503e+01 -2.16321e+01
       E -1.59854e+01  3.40882e+01  3.18270e+00
3
# CELL(abcABC): 1322.94304  1322.94304  1322.94304    90.00000    90.00000    90.00000  Step:        2500  Bead:      30 positions{angstrom}  cell{angstrom}
       E -1.75240e+01 -2.43379e+01  1.74458e+01
       E -3.64455e+01 -5.66238e+01  1.37727e+00
       E -1.47604e+01 -4.18271e+00  7.45385e+01
3
# CELL(abcABC): 1322.94304  1322.94304  1322.94304    90.00000    90.00000    90.00000  Step:        2600  Bead:      30 positions{angstrom}  cell{angstrom}
       E -3.27715e+01 -2.28044e+01  7.20845e+01
       E -3.23507e+01 -6.51822e+01 -1.73122e+01
       E  3.14350e+01  5.21425e+00  7.90669e+01
3
# CELL(abcABC): 1322.94304  1322.94304  1322.94304    90.00000    90.00000    90.00000  Step:        2700  Bead:      30 positions{angstrom}  cell{angstrom}
       E -2.08711e+01 -5.97221e+01  1.20972e+02
       E -6.85959e+01 -6.67704e+01 -1.38415e+01
       E -5.34220e+00 -4.41255e+01  6.04860e+01
3
# CELL(abcABC): 1322.94304  1322.94304  1322.94304    90.00000    90.00000    90.00000  Step:        2800  Bead:      30 positions{angstrom}  cell{angstrom}
       E -3.71999e+01 -4.86735e+01  8.38611e+01
       E -3.68498e+01 -1.14028e+01 -2.73490e+00
       E  1.89546e+01 -2.41334e+00  5.83400e+01
3
# CELL(abcABC): 1322.94304  1322.94304  1322.94304    90.00000    90.00000    90.00000  Step:        2900  Bead:      30 positions{angstrom}  cell{angstrom}
       E -4.86971e+01 -7.83390e+01  2.91756e+01
       E -4.98183e+01 -4.46932e+01  1.47355e+01
       E  1.60343e+01 -3.31381e+01  4.97546e+01
3
# CELL(abcABC): 1322.94304  1322.94304  1322.94304    90.00000    90.00000    90.00000  Step:        3000  Bead:      30 positions{angstrom}  cell{angstrom}
       E -6.68753e+01 -4.74564e+01  2.60785e+01
       E -1.33883e+01 -3.52596e+01  4.98824e+00
       E  6.07901e+01 -1.36413e+00  3.61243e+01
3
# CELL(abcABC): 1322.94304  1322.94304  1322.94304    90.00000    90.00000    90.00000  Step:        3100  Bead:      30 positions{angstrom}  cell{angstrom}
       E -8.48775e+01 -6.13657e+01  2.56421e+01
       E -3.63402e+01 -4.78212e+01  5.62395e+01
       E  5.68157e+01  1.59749e+01  1.19894e+01
3
# CELL(abcABC): 1322.94304  1322.94304  1322.94304    90.00000    90.00000    90.00000  Step:        3200  Bead:      30 positions{angstrom}  cell{angstrom}
       E -8.13889e+01 -5.71206e+01  3.45823e+01
       E -5.76149e+01 -3.42115e+01  6.19986e+01
       E  5.71636e+01  3.70024e+01  1.32673e+01
3
# CELL(abcABC): 1322.94304  1322.94304  1322.94304    90.00000    90.00000    90.00000  Step:        3300  Bead:      30 positions{angstrom}  cell{angstrom}
       E -9.29572e+01  1.16047e+01  7.48893e+01
       E -6.76295e+01 -1.67544e+01  6.91016e+01
       E  6.55463e+01  6.58882e+01  6.21438e+01
3
# CELL(abcABC): 1322.94304  1322.94304  1322.94304    90.00000    90.00000    90.00000  Step:        3400  Bead:      30 positions{angstrom}  cell{angstrom}
       E -9.57882e+01  7.71650e+00  5.02649e+01
       E -6.56120e+01 -9.06413e+00  4.70068e+01
       E  4.04981e+01  3.70930e+01  3.61703e+01
3
# CELL(abcABC): 1322.94304  1322.94304  1322.94304    90.00000    90.00000    90.00000  Step:        3500  Bead:      30 positions{angstrom}  cell{angstrom}
       E -8.61046e+01 -4.01327e+01  4.73747e+01
       E -7.62015e+01 -4.60642e+01  5.85384e+01
       E  1.77712e+01  6.07885e+01  1.39042e+01
3
# CELL(abcABC): 1322.94304  1322.94304  1322.94304    90.00000    90.00000    90.00000  Step:        3600  Bead:      30 positions{angstrom}  cell{angstrom}
       E -8.20053e+01 -4.60882e+01  1.33555e+00
       E -2.95673e+01 -2.00907e+01  3.04717e+01
       E -3.10127e+01  1.58721e+01  2.21762e+01
3
# CELL(abcABC): 1322.94304  1322.94304  1322.94304    90.00000    90.00000    90.00000  Step:        3700  Bead:      30 positions{angstrom}  cell{angstrom}
       E -5.60712e+01 -4.96145e+01  1.75137e+01
       E  8.82313e+00 -3.80669e+01 -1.82776e+01
       E -6.97943e+01  1.55411e+01 -5.27452e-01
3
# CELL(abcABC): 1322.94304  1322.94304  1322.94304    90.00000    90.00000    90.00000  Step:        3800  Bead:      30 positions{angstrom}  cell{angstrom}
       E -6.34872e+01 -2.71494e+01  1.68955e+01
       E  2.14028e+01 -2.82889e+01 -3.33482e+01
       E -3.16280e+01 -3.11424e+01 -1.60191e+01
3
# CELL(abcABC): 1322.94304  1322.94304  1322.94304    90.00000    90.00000    90.00000  Step:        3900  Bead:      30 positions{angstrom}  cell{angstrom}
       E -7.14427e+01 -2.33882e+01 -2.36430e+00
       E -4.33460e+01 -4.04741e+01 -2.87213e+01
       E -5.87353e-01 -4.52678e+01  3.49796e+01
3
# CELL(abcABC): 1322.94304  1322.94304  1322.94304    90.00000    90.00000    90.00000  Step:        4000  Bead:      30 positions{angstrom}  cell{angstrom}
       E -1.04262e+02  2.41319e+00 -1.39371e+01
       E -5.59580e+01  1.10988e+01 -1.52597e+01
       E  1.51143e+01 -4.73704e+01  6.33128e+00
3
# CELL(abcABC): 1322.94304  1322.94304  1322.94304    90.00000    90.00000    90.00000  Step:        4100  Bead:      30 positions{angstrom}  cell{angstrom}
       E -1.06450e+02  3.21630e+01 -3.79398e+01
       E -4.37767e+01  2.37404e+01  1.78705e+01
       E -3.14924e+01 -2.54785e+01 -1.07037e+01
3
# CELL(abcABC): 1322.94304  1322.94304  1322.94304    90.00000    90.00000    90.00000  Step:        4200  Bead:      30 positions{angstrom}  cell{angstrom}
       E -7.62402e+01  1.67444e+01 -9.92428e+01
       E -2.91464e+01  1.20215e+01 -2.25358e+01
       E -2.27085e+01 -2.90022e+01 -2.27962e+01
3
# CELL(abcABC): 1322.94304  1322.94304  1322.94304    90.00000    90.00000    90.00000  Step:        4300  Bead:      30 positions{angstrom}  cell{angstrom}
       E -8.47451e+01  3.18428e+01 -9.90277e+01
       E -9.38104e+00  3.82042e+01 -1.50013e+01
       E -4.13056e+00 -7.79361e+00 -3.59845e+00
3
# CELL(abcABC): 1322.94304  1322.94304  1322.94304    90.00000    90.00000    90.00000  Step:        4400  Bead:      30 positions{angstrom}  cell{angstrom}
       E -2.90668e+01  4.70866e+01 -9.66074e+01
       E -4.49380e+01  4.64162e+01  1.86717e+01
       E -2.33856e+00 -1.99784e+01  3.66381e+00
3
# CELL(abcABC): 1322.94304  1322.94304  1322.94304    90.00000    90.00000    90.00000  Step:        4500  Bead:      30 positions{angstrom}  cell{angstrom}
       E -6.05706e+01  1.31532e+01 -8.21959e+01
       E -5.75765e+01  3.54390e+01  1.70360e+01
       E -1.39651e-01 -2.25278e+01  1.07634e+01
3
# CELL(abcABC): 1322.94304  1322.94304  1322.94304    90.00000    90.00000    90.00000  Step:        4600  Bead:      30 positions{angstrom}  cell{angstrom}
       E -3.11501e+01  2.70839e+01 -3.60928e+01
       E -6.22498e+01  6.80348e+01  2.13727e+01
       E  1.67131e+01 -3.41237e+01  6.02643e+00
3
# CELL(abcABC): 1322.94304  1322.94304  1322.94304    90.00000    90.00000    90.00000  Step:        4700  Bead:      30 positions{angstrom}  cell{angstrom}
       E -1.56563e+01  2.09856e+01 -6.84200e+01
       E -6.20224e+01  1.51196e+00 -5.96231e+00
       E  8.38276e+00 -2.84260e+01  3.33253e+01
3
# CELL(abcABC): 1322.94304  1322.94304  1322.94304    90.00000    90.00000    90.00000  Step:        4800  Bead:      30 positions{angstrom}  cell{angstrom}
       E  1.45878e+01  5.10229e+01 -5.39517e+01
       E -5.67565e+01 -2.25431e+01 -3.16225e+01
       E  7.20018e+00 -4.34707e+01 -8.36656e+00
3
# CELL(abcABC): 1322.94304  1322.94304  1322.94304    90.00000    90.00000    90.00000  Step:        4900  Bead:      30 positions{angstrom}  cell{angstrom}
       E  3.23161e+01  3.05902e+01 -3.28432e+01
       E -6.23172e+01 -4.17064e+01 -3.90517e+01
       E  1.62565e+01 -3.29438e+01 -1.54468e+00
3
# CELL(abcABC): 1322.94304  1322.94304  1322.94304    90.00000    90.00000    90.00000  Step:        5000  Bead:      30 positions{angstrom}  cell{angstrom}
       E  8.63528e+01  3.32903e+01 -4.28847e+01
       E -6.89797e+01 -2.70632e+01 -3.69126e+01
       E  4.16170e+01 -1.81180e+01 -1.03077e+01
3
# CELL(abcABC): 1322.94304  1322.94304  1322.94304    90.00000    90.00000    90.00000  Step:        5100  Bead:      30 positions{angstrom}  cell{angstrom}
       E  7.97281e+01  5.15582e+01  1.90036e+01
       E -6.57551e+01 -3.28058e+01  1.69529e+00
       E  2.24100e+01 -1.61509e+01  2.66295e+00
3
# CELL(abcABC): 1322.94304  1322.94304  1322.94304    90.00000    90.00000    90.00000  Step:        5200  Bead:      30 positions{angstrom}  cell{angstrom}
       E  3.92459e+01  8.36457e+00 -2.79140e+01
       E -6.44744e+01 -5.13045e-02 -2.78589e+00
       E  6.41518e+00  1.37853e+01 -2.89245e+01
3
# CELL(abcABC): 1322.94304  1322.94304  1322.94304    90.00000    90.00000    90.00000  Step:        5300  Bead:      30 positions{angstrom}  cell{angstrom}
       E  2.47197e+01 -1.14024e+00 -5.35514e+00
       E -5.22869e+01  3.15401e+01 -1.52587e+01
       E -2.02710e+01  3.14556e+01  6.20573e+00
3
# CELL(abcABC): 1322.94304  1322.94304  1322.94304    90.00000    90.00000    90.00000  Step:        5400  Bead:      30 positions{angstrom}  cell{angstrom}
       E -1.10277e+01  1.45922e+01  1.23312e+01
       E -5.01195e+01  4.27600e+01 -3.28337e+01
       E -3.30962e+00  4.59181e+01  1.71659e+01
3
# CELL(abcABC): 1322.94304  1322.94304  1322.94304    90.00000    90.00000    90.00000  Step:        5500  Bead:      30 positions{angstrom}  cell{angstrom}
       E  4.12427e+01  3.56675e+01 -5.31004e+00
       E -1.35499e+01  1.51524e+00 -8.56285e-01
       E -2.09758e+01  4.17428e+01  5.09283e+00
3
# CELL(abcABC): 1322.94304  1322.94304  1322.94304    90.00000    90.00000    90.00000  Step:        5600  Bead:      30 positions{angstrom}  cell{angstrom}
       E  4.43787e+01  1.44712e+01 -2.42618e+01
       E -4.06027e+01  2.77146e+01 -7.65252e+00
       E -3.15144e+01  4.20523e+00  4.06002e+00
3
# CELL(abcABC): 1322.94304  1322.94304  1322.94304    90.00000    90.00000    90.00000  Step:        5700  Bead:      30 positions{angstrom}  cell{angstrom}
       E  6.29908e+00  1.20671e+01 -1.94227e+01
       E  1.97272e+00  1.43965e+01  9.24434e+00
       E -3.39221e+01 -3.39317e+01  3.38586e+01
3
# CELL(abcABC): 1322.94304  1322.94304  1322.94304    90.00000    90.00000    90.00000  Step:        5800  Bead:      30 positions{angstrom}  cell{angstrom}
       E -1.47451e+01  2.53468e+01 -7.54685e+00
       E -3.92491e+00  1.14563e+01  3.90659e-01
       E -2.31053e+01 -4.73799e+01 -2.52834e+01
3
# CELL(abcABC): 1322.94304  1322.94304  1322.94304    90.00000    90.00000    90.00000  Step:        5900  Bead:      30 positions{angstrom}  cell{angstrom}
       E  3.87837e+00  5.87149e+00  1.92484e+01
       E -1.27188e+01  1.38241e+01 -2.56086e+01
       E  1.44235e+00 -4.91589e+01  7.05476e+00
3
# CELL(abcABC): 1322.94304  1322.94304  1322.94304    90.00000    90.00000    90.00000  Step:        6000  Bead:      30 positions{angstrom}  cell{angstrom}
       E  3.48030e-01 -1.29773e+01 -2.63265e+01
       E  5.53378e-02 -1.48447e+01 -5.07236e+01
       E -7.30983e+00 -5.08044e+01 -2.22450e+01
3
# CELL(abcABC): 1322.94304  1322.94304  1322.94304    90.00000    90.00000    90.00000  Step:        6100  Bead:      30 positions{angstrom}  cell{angstrom}
       E  3.22630e+01 -4.99121e+01 -4.24790e+01
       E  1.70757e+01 -3.13940e+01 -5.03023e+01
       E  1.22265e+01 -2.31316e+01  2.21759e+00
3
# CELL(abcABC): 1322.94304  1322.94304  1322.94304    90.00000    90.00000    90.00000  Step:        6200  Bead:      30 positions{angstrom}  cell{angstrom}
       E  3.96910e+01 -6.75846e+01 -7.26960e+01
       E  7.50874e+01 -1.80899e+01 -3.24485e+01
       E -8.95555e+00 -5.14546e+01  5.88720e+00
3
# CELL(abcABC): 1322.94304  1322.94304  1322.94304    90.00000    90.00000    90.00000  Step:        6300  Bead:      30 positions{angstrom}  cell{angstrom}
       E  5.10170e+01 -8.12749e+01 -1.16437e+02
       E  7.12921e+01 -3.16964e+01 -1.60374e+01
       E  2.22293e+01 -5.14714e+01  3.99266e+00
3
# CELL(abcABC): 1322.94304  1322.94304  1322.94304    90.00000    90.00000    90.00000  Step:        6400  Bead:      30 positions{angstrom}  cell{angstrom}
       E  2.99028e+01 -8.22691e+01 -9.82747e+01
       E  5.02327e+01 -2.63855e+01 -2.36199e+01
       E -9.30484e-01 -7.53544e+00  2.69207e+01
3
# CELL(abcABC): 1322.94304  1322.94304  1322.94304    90.00000    90.00000    90.00000  Step:        6500  Bead:      30 positions{angstrom}  cell{angstrom}
       E  3.69892e+01 -8.42508e+01 -1.19411e+02
       E  6.93139e+00  1.80844e+01 -5.50520e+01
       E -1.78738e+01  7.82201e+00  2.91262e-02
3
# CELL(abcABC): 1322.94304  1322.94304  1322.94304    90.00000    90.00000    90.00000  Step:        6600  Bead:      30 positions{angstrom}  cell{angstrom}
       E  3.23831e+01 -9.47482e+01 -1.30098e+02
       E  3.07618e+01 -4.14156e+00 -1.72446e+01
       E -7.96854e+00 -5.13726e+01  1.33785e+01
3
# CELL(abcABC): 1322.94304  1322.94304  1322.94304    90.00000    90.00000    90.00000  Step:        6700  Bead:      30 positions{angstrom}  cell{angstrom}
       E  3.91963e+01 -8.60632e+01 -1.37304e+02
       E  4.49235e+01 -3.96773e+00 -5.33692e+01
       E -4.04964e+01 -3.53009e+01  4.17520e+01
3
# CELL(abcABC): 1322.94304  1322.94304  1322.94304    90.00000    90.00000    90.00000  Step:        6800  Bead:      30 positions{angstrom}  cell{angstrom}
       E  2.98007e+01 -1.13604e+02 -9.70974e+01
       E  3.05241e+01 -2.06497e+00 -3.66602e+01
       E -1.49513e+01 -3.49479e+01  5.84839e+01
3
# CELL(abcABC): 1322.94304  1322.94304  1322.94304    90.00000    90.00000    90.00000  Step:        6900  Bead:      30 positions{angstrom}  cell{angstrom}
       E  3.44796e+00 -9.86341e+01 -4.96079e+01
       E  2.47131e+01 -1.90138e+01 -1.05266e+01
       E -2.81933e-02 -1.46156e+01  1.69639e+01
3
# CELL(abcABC): 1322.94304  1322.94304  1322.94304    90.00000    90.00000    90.00000  Step:        7000  Bead:      30 positions{angstrom}  cell{angstrom}
       E  2.01005e+01 -5.47375e+01 -4.07476e+01
       E  1.54183e+01  2.69931e+01 -7.42491e+00
       E  4.21001e+01 -3.99502e+00  4.08307e+01
3
# CELL(abcABC): 1322.94304  1322.94304  1322.94304    90.00000    90.00000    90.00000  Step:        7100  Bead:      30 positions{angstrom}  cell{angstrom}
       E -2.31917e+00 -3.71973e+01 -5.88850e+01
       E -1.45924e+01  4.59088e+01  2.80006e+01
       E  4.50020e+01  1.49298e+01 -1.29272e+01
3
# CELL(abcABC): 1322.94304  1322.94304  1322.94304    90.00000    90.00000    90.00000  Step:        7200  Bead:      30 positions{angstrom}  cell{angstrom}
       E -3.14916e+01 -3.86757e+01 -6.84504e+01
       E  4.04517e+00  5.58747e+01  4.75890e+01
       E  3.64531e+01  4.60000e+01  3.64497e+00
3
# CELL(abcABC): 1322.94304  1322.94304  1322.94304    90.00000    90.00000    90.00000  Step:        7300  Bead:      30 positions{angstrom}  cell{angstrom}
       E  3.50096e+01  1.34466e+01 -4.08611e+01
       E -3.22797e+01  2.28141e+01  3.27801e+01
       E  6.54205e+01  2.56051e+01 -3.59566e+01
3
# CELL(abcABC): 1322.94304  1322.94304  1322.94304    90.00000    90.00000    90.00000  Step:        7400  Bead:      30 positions{angstrom}  cell{angstrom}
       E  1.31999e+01  7.70520e+00 -5.48435e+00
       E -5.87166e+00  1.01102e+01  1.35194e+01
       E  6.15829e+01  4.22842e+01 -4.91822e+01
3
# CELL(abcABC): 1322.94304  1322.94304  1322.94304    90.00000    90.00000    90.00000  Step:        7500  Bead:      30 positions{angstrom}  cell{angstrom}
       E -2.62464e+01 -2.98914e+01 -3.64768e+01
       E -1.72778e+01 -1.30932e+01  2.18082e+01
       E  6.34895e+01  4.92665e+01 -3.02975e+01
3
# CELL(abcABC): 1322.94304  1322.94304  1322.94304    90.00000    90.00000    90.00000  Step:        7600  Bead:      30 positions{angstrom}  cell{angstrom}
       E -2.14576e+01 -5.61534e+01 -4.42920e+01
       E -3.63641e+01 -4.20358e+01 -2.99110e+00
       E  6.72477e+01  6.77707e+01 -3.07189e+01
3
# CELL(abcABC): 1322.94304  1322.94304  1322.94304    90.00000    90.00000    90.00000  Step:        7700  Bead:      30 positions{angstrom}  cell{angstrom}
       E -2.80671e+00 -5.91800e+01 -5.20274e+01
       E  5.89041e+00 -6.20418e+01 -6.80923e+00
       E  6.72795e+01  3.72450e+01 -3.76880e+01
3
# CELL(abcABC): 1322.94304  1322.94304  1322.94304    90.00000    90.00000    90.00000  Step:        7800  Bead:      30 positions{angstrom}  cell{angstrom}
       E  1.16866e-01 -6.37130e+01 -3.68304e+01
       E  2.00656e+01 -4.86975e+01 -3.67301e+01
       E  5.21692e+01  1.28404e+01 -3.74848e+01
3
# CELL(abcABC): 1322.94304  1322.94304  1322.94304    90.00000    90.00000    90.00000  Step:        7900  Bead:      30 positions{angstrom}  cell{angstrom}
       E  1.89515e+01 -1.74119e+01 -2.92587e+01
       E  1.43255e+01 -3.18066e+01 -4.57132e+01
       E  8.42497e+01  1.21069e+01 -5.02133e+01
3
# CELL(abcABC): 1322.94304  1322.94304  1322.94304    90.00000    90.00000    90.00000  Step:        8000  Bead:      30 positions{angstrom}  cell{angstrom}
       E  1.89830e+01  5.40426e+00 -1.50766e+01
       E -1.14761e+01 -1.65581e+01 -4.74058e+01
       E  4.53521e+01 -1.30735e+01 -2.68838e+01
3
# CELL(abcABC): 1322.94304  1322.94304  1322.94304    90.00000    90.00000    90.00000  Step:        8100  Bead:      30 positions{angstrom}  cell{angstrom}
       E  4.17438e+01  5.41988e+01 -6.52110e+00
       E -1.83771e+01 -4.71718e+00 -5.31542e+01
       E -4.27597e+00 -1.81386e+01 -1.74117e+00
3
# CELL(abcABC): 1322.94304  1322.94304  1322.94304    90.00000    90.00000    90.00000  Step:        8200  Bead:      30 positions{angstrom}  cell{angstrom}
       E  2.10326e+01  1.23066e+01  7.72735e+00
       E -4.72218e+00  3.62808e+01 -9.29784e+00
       E -1.18640e+01 -2.71077e+01  1.46769e+00
3
# CELL(abcABC): 1322.94304  1322.94304  1322.94304    90.00000    90.00000    90.00000  Step:        8300  Bead:      30 positions{angstrom}  cell{angstrom}
       E  3.95281e+01  4.37707e+01 -6.35430e+00
       E  4.02508e+01  2.11566e+00 -7.51784e+00
       E -1.39266e+01 -2.83081e+01  2.21264e+01
3
# CELL(abcABC): 1322.94304  1322.94304  1322.94304    90.00000    90.00000    90.00000  Step:        8400  Bead:      30 positions{angstrom}  cell{angstrom}
       E  3.10352e+01 -1.61297e+01 -1.88675e+01
       E -2.61197e+00  1.03573e+01  1.44231e+01
       E  9.78035e+00 -4.65836e+01  4.65265e+01
3
# CELL(abcABC): 1322.94304  1322.94304  1322.94304    90.00000    90.00000    90.00000  Step:        8500  Bead:      30 positions{angstrom}  cell{angstrom}
       E  2.16581e+01  1.80575e+01 -1.50169e+01
       E  2.24751e+01  7.04989e+00  1.66432e+01
       E  3.04436e+01 -2.10149e+01  3.60646e+01
3
# CELL(abcABC): 1322.94304  1322.94304  1322.94304    90.00000    90.00000    90.00000  Step:        8600  Bead:      30 positions{angstrom}  cell{angstrom}
       E -1.60269e+01 -7.64147e+00  1.24032e+00
       E  3.28722e+01 -1.23756e+01  1.40643e+01
       E  4.78675e+01  2.44810e+01  2.75968e+01
3
# CELL(abcABC): 1322.94304  1322.94304  1322.94304    90.00000    90.00000    90.00000  Step:        8700  Bead:      30 positions{angstrom}  cell{angstrom}
       E -7.06227e+01  2.20560e+01 -2.64107e+01
       E  2.20634e+01 -2.02688e+01  2.07869e+01
       E  8.15316e+01 -1.62212e+01  3.78552e+01
3
# CELL(abcABC): 1322.94304  1322.94304  1322.94304    90.00000    90.00000    90.00000  Step:        8800  Bead:      30 positions{angstrom}  cell{angstrom}
       E -3.68236e+01  3.26203e+01 -1.03970e+01
       E -4.07058e+00 -3.98018e+01  3.84380e+01
       E  6.06653e+01 -5.36594e+01  3.84910e+01
3
# CELL(abcABC): 1322.94304  1322.94304  1322.94304    90.00000    90.00000    90.00000  Step:        8900  Bead:      30 positions{angstrom}  cell{angstrom}
       E -3.09820e+01  6.23911e+01 -1.42281e+01
       E -2.99609e+01 -3.13362e+01  3.19632e+01
       E  3.45364e+01 -8.92810e+01  3.81657e+01
3
# CELL(abcABC): 1322.94304  1322.94304  1322.94304    90.00000    90.00000    90.00000  Step:        9000  Bead:      30 positions{angstrom}  cell{angstrom}
       E -2.01152e+01  6.56708e+01  1.65233e+01
       E -5.47632e+01 -6.56741e+01  4.42327e+01
       E  2.38193e+01 -6.06475e+01  4.78227e+00
3
# CELL(abcABC): 1322.94304  1322.94304  1322.94304    90.00000    90.00000    90.00000  Step:        9100  Bead:      30 positions{angstrom}  cell{angstrom}
       E  7.78289e+00  2.49585e+01  3.28195e+01
       E -3.63585e+01  1.68685e+00  3.37961e+01
       E  1.74248e+00 -6.44559e+01  1.20061e+01
3
# CELL(abcABC): 1322.94304  1322.94304  1322.94304    90.00000    90.00000    90.00000  Step:        9200  Bead:      30 positions{angstrom}  cell{angstrom}
       E  3.02580e+00  4.25982e+01 -1.56067e+00
       E -3.48716e+01 -1.43335e+01  3.05340e+01
       E  3.05457e+01 -4.10088e+01 -1.09051e+00
3
# CELL(abcABC): 1322.94304  1322.94304  1322.94304    90.00000    90.00000    90.00000  Step:        9300  Bead:      30 positions{angstrom}  cell{angstrom}
       E  4.58413e+01  4.73179e+01 -4.83355e+01
       E -2.02666e+00 -4.91583e+01  5.68994e+01
       E  5.51108e+01 -2.47400e+01  3.95721e-01
3
# CELL(abcABC): 1322.94304  1322.94304  1322.94304    90.00000    90.00000    90.00000  Step:        9400  Bead:      30 positions{angstrom}  cell{angstrom}
       E  3.88506e+01  3.17165e+01 -1.69078e+01
       E -9.13783e+00 -4.97008e+01  1.13671e+01
       E  8.73857e+00 -6.03505e+00  1.11473e+01
3
# CELL(abcABC): 1322.94304  1322.94304  1322.94304    90.00000    90.00000    90.00000  Step:        9500  Bead:      30 positions{angstrom}  cell{angstrom}
       E  3.74377e+01  8.06128e-02 -2.54305e+01
       E  5.67711e+00 -2.52685e+01  1.89512e+01
       E  1.60508e+01 -2.03954e+01 -2.45635e+01
3
# CELL(abcABC): 1322.94304  1322.94304  1322.94304    90.00000    90.00000    90.00000  Step:        9600  Bead:      30 positions{angstrom}  cell{angstrom}
       E  7.78869e+00 -7.78393e+00 -3.40030e+01
       E  2.37889e+01 -2.80763e+01  8.91057e+00
       E  2.04185e+00 -3.41330e+01 -4.86747e+00
3
# CELL(abcABC): 1322.94304  1322.94304  1322.94304    90.00000    90.00000    90.00000  Step:        9700  Bead:      30 positions{angstrom}  cell{angstrom}
       E -4.09763e+01 -6.13864e+01 -6.23317e+01
       E  4.07993e+01 -6.80171e+01 -2.43925e+01
       E -3.78456e+01  7.38775e-01  4.86455e+00
3
# CELL(abcABC): 1322.94304  1322.94304  1322.94304    90.00000    90.00000    90.00000  Step:        9800  Bead:      30 positions{angstrom}  cell{angstrom}
       E -1.64038e+01 -4.42295e+01 -7.10099e+01
       E  3.96216e+01 -7.64847e+01 -1.45931e+01
       E -2.61957e+01 -2.74468e+01 -1.55827e+01
3