3
# CELL(abcABC): 1322.94304  1322.94304  1322.94304    90.00000    90.00000    90.00000  Step:           0  Bead:      10 positions{angstrom}  cell{angstrom}
       E  0.00000e+00  0.00000e+00  0.00000e+00
       E  0.00000e+00  0.00000e+00  0.00000e+00
       E  0.00000e+00  0.00000e+00  0.00000e+00
3
# CELL(abcABC): 1322.94304  1322.94304  1322.94304    90.00000    90.00000    90.00000  Step:         100  Bead:      10 positions{angstrom}  cell{angstrom}
       E -5.35596e+00  5.56130e+00 -5.51906e+00
       E -6.96853e+00  1.18756e+01 -1.85222e+01
       E -1.63728e+01 -7.13590e-01 -2.45906e+00
3
# CELL(abcABC): 1322.94304  1322.94304  1322.94304    90.00000    90.00000    90.00000  Step:         200  Bead:      10 positions{angstrom}  cell{angstrom}
       E -1.33588e+01 -5.46520e+01 -1.46399e+01
       E  2.57134e+01  9.93105e+00 -3.05560e+01
       E -4.08993e+01  2.20825e+00 -1.12703e+01
3
# CELL(abcABC): 1322.94304  1322.94304  1322.94304    90.00000    90.00000    90.00000  Step:         300  Bead:      10 positions{angstrom}  cell{angstrom}
       E -3.50341e+01 -7.95193e+00 -1.23833e+00
       E  2.34987e+01  1.47886e+01 -9.65531e+00
       E -2.49357e+01  2.18925e+01  2.01802e+01
3
# CELL(abcABC): 1322.94304  1322.94304  1322.94304    90.00000    90.00000    90.00000  Step:         400  Bead:      10 positions{angstrom}  cell{angstrom}
       E -2.80948e+00  1.82644e+01 -1.37049e+01
       E -1.71349e+00  3.38624e+01 -1.65917e+00
       E -1.21648e+01  1.72234e+01  2.33148e+01
3
# CELL(abcABC): 1322.94304  1322.94304  1322.94304    90.00000    90.00000    90.00000  Step:         500  Bead:      10 positions{angstrom}  cell{angstrom}
       E -1.44558e+01  1.45291e+01 -8.77121e+00
       E  2.16624e+01  5.07799e+00  1.76845e+01
       E -2.50652e+01  2.93872e+01  4.84459e+01
3
# CELL(abcABC): 1322.94304  1322.94304  1322.94304    90.00000    90.00000    90.00000  Step:         600  Bead:      10 positions{angstrom}  cell{angstrom}
       E -2.13837e+01  2.30195e+01 -3.07220e+01
       E -1.54739e+01 -5.17247e+00  4.47762e+01
       E  2.72194e+01  9.44377e+00  3.94469e+01
3
# CELL(abcABC): 1322.94304  1322.94304  1322.94304    90.00000    90.00000    90.00000  Step:         700  Bead:      10 positions{angstrom}  cell{angstrom}
       E -1.11518e+01  4.38597e+01 -5.06815e+01
       E  1.13428e+00  5.01000e+01  4.72674e+01
       E -4.05678e+00  7.75347e+00  2.69729e+01
3
# CELL(abcABC): 1322.94304  1322.94304  1322.94304    90.00000    90.00000    90.00000  Step:         800  Bead:      10 positions{angstrom}  cell{angstrom}
       E -4.24687e+01  3.56714e+01 -2.20510e+01
       E  3.25236e-01  4.36182e+01  7.46624e+00
       E -5.43525e+01  2.98420e+01  7.03793e+01
3
# CELL(abcABC): 1322.94304  1322.94304  1322.94304    90.00000    90.00000    90.00000  Step:         900  Bead:      10 positions{angstrom}  cell{angstrom}
       E  1.84620e+01 -9.98327e+00 -2.64535e+01
       E -9.85523e+00  1.09542e+01 -1.38528e+01
       E -4.65542e+01  2.58853e+01  1.03593e+02
3
# CELL(abcABC): 1322.94304  1322.94304  1322.94304    90.00000    90.00000    90.00000  Step:        1000  Bead:      10 positions{angstrom}  cell{angstrom}
       E  7.15578e+00  9.64484e+00 -3.88011e+01
       E  5.57317e+00 -2.39384e+01 -7.72450e+01
       E -3.45233e+01  1.25975e+01  1.08611e+02
3
# CELL(abcABC): 1322.94304  1322.94304  1322.94304    90.00000    90.00000    90.00000  Step:        1100  Bead:      10 positions{angstrom}  cell{angstrom}
       E  2.85618e+01  4.63963e+00 -9.67794e+01
       E  1.60572e+01 -2.17815e+01 -4.63540e+01
       E -3.61174e+01  3.50392e+01  6.96234e+01
3
# CELL(abcABC): 1322.94304  1322.94304  1322.94304    90.00000    90.00000    90.00000  Step:        1200  Bead:      10 positions{angstrom}  cell{angstrom}
       E  9.12742e-01  1.39940e+01 -1.10201e+02
       E  4.14544e+01 -3.49478e+01 -6.84957e+01
       E -7.30232e+00  3.57601e+01  3.85150e+01
3
# CELL(abcABC): 1322.94304  1322.94304  1322.94304    90.00000    90.00000    90.00000  Step:        1300  Bead:      10 positions{angstrom}  cell{angstrom}
       E -2.85933e-01  3.90979e+01 -8.52800e+01
       E  6.89600e+00 -3.87354e+01 -5.73432e+01
       E -1.94127e+01  3.06057e+01  5.12136e+01
3
# CELL(abcABC): 1322.94304  1322.94304  1322.94304    90.00000    90.00000    90.00000  Step:        1400  Bead:      10 positions{angstrom}  cell{angstrom}
       E -1.70735e+01  2.64502e+01 -9.16277e+01
       E -7.54430e-01 -2.43836e+01 -6.14445e+01
       E -6.28158e+01  4.74060e+01  2.30363e+01
3
# CELL(abcABC): 1322.94304  1322.94304  1322.94304    90.00000    90.00000    90.00000  Step:        1500  Bead:      10 positions{angstrom}  cell{angstrom}
       E -2.42768e+01  4.14580e+01 -8.45239e+01
       E -7.96510e+00 -2.07132e+01 -3.19320e+01
       E -5.48111e+01  3.15534e+01  3.18213e+01
3
# CELL(abcABC): 1322.94304  1322.94304  1322.94304    90.00000    90.00000    90.00000  Step:        1600  Bead:      10 positions{angstrom}  cell{angstrom}
       E  4.73170e+01  4.67650e+01 -7.35654e+01
       E -3.11457e+01  2.11855e+01  9.81508e+00
       E -5.51424e+01  6.12102e+01  1.28985e+01
3
# CELL(abcABC): 1322.94304  1322.94304  1322.94304    90.00000    90.00000    90.00000  Step:        1700  Bead:      10 positions{angstrom}  cell{angstrom}
       E  4.48179e+01  1.92015e+01 -3.11829e+01
       E  2.12894e+01  5.33006e+01  2.32461e+01
       E -3.48008e+01  6.21583e+01  2.34856e+01
3
# CELL(abcABC): 1322.94304  1322.94304  1322.94304    90.00000    90.00000    90.00000  Step:        1800  Bead:      10 positions{angstrom}  cell{angstrom}
       E  1.51802e-01  2.63026e+01  6.75489e+00
       E -3.42520e+01  5.55846e+01  3.60678e+00
       E -6.91748e+01  7.22728e+01  6.89376e+01
3
# CELL(abcABC): 1322.94304  1322.94304  1322.94304    90.00000    90.00000    90.00000  Step:        1900  Bead:      10 positions{angstrom}  cell{angstrom}
       E -4.76141e+01  2.26761e+01  4.90639e+01
       E -8.07370e+01  2.19185e+01  3.48880e+01
       E -7.31531e+01  4.19780e+01  3.16878e+01
3
# CELL(abcABC): 1322.94304  1322.94304  1322.94304    90.00000    90.00000    90.00000  Step:        2000  Bead:      10 positions{angstrom}  cell{angstrom}
       E -2.58543e+01  1.21703e+01  5.29406e+01
       E -4.44036e+01  2.97481e+01  2.08564e+01
       E -1.13696e+02  3.74278e+01 -9.14609e+00
3
# CELL(abcABC): 1322.94304  1322.94304  1322.94304    90.00000    90.00000    90.00000  Step:        2100  Bead:      10 positions{angstrom}  cell{angstrom}
       E -1.57689e+01 -3.30121e+01  6.72666e+01
       E -3.99280e+01  1.65246e+01 -1.40906e+01
       E -7.29848e+01  4.77135e+01 -2.91074e+00
3
# CELL(abcABC): 1322.94304  1322.94304  1322.94304    90.00000    90.00000    90.00000  Step:        2200  Bead:      10 positions{angstrom}  cell{angstrom}
       E -3.63530e+01 -3.98711e+01  7.21326e+01
       E -2.78337e+01  1.70048e+01 -4.26300e+01
       E -4.41699e+01  8.89922e+01 -1.48028e+01
3
# CELL(abcABC): 1322.94304  1322.94304  1322.94304    90.00000    90.00000    90.00000  Step:        2300  Bead:      10 positions{angstrom}  cell{angstrom}
       E -1.76525e+01 -8.97245e+01  7.22296e+01
       E -1.88683e+01 -1.38313e+01 -2.09970e+01
       E -4.47295e+01  5.83858e+01  2.16010e+01
3
# CELL(abcABC): 1322.94304  1322.94304  1322.94304    90.00000    90.00000    90.00000  Step:        2400  Bead:      10 positions{angstrom}  cell{angstrom}
       E -8.98581e+00 -6.57655e+01  2.77176e+01
       E -8.43310e-01 -3.27386e+01 -1.97851e+01
       E  1.19448e+00  4.57689e+01  4.32513e+01
3
# CELL(abcABC): 1322.94304  1322.94304  1322.94304    90.00000    90.00000    90.00000  Step:        2500  Bead:      10 positions{angstrom}  cell{angstrom}
       E  1.05358e+01 -3.45439e+01  4.54704e+01
       E -7.65660e+00 -2.67783e+01 -5.04954e+01
       E  1.47391e+01  2.69149e+01  4.20625e+01
3
# CELL(abcABC): 1322.94304  1322.94304  1322.94304    90.00000    90.00000    90.00000  Step:        2600  Bead:      10 positions{angstrom}  cell{angstrom}
       E  1.12935e-01 -1.00091e+01  3.30414e+01
       E -6.00008e+01 -4.35683e+01 -8.83611e+01
       E -1.13536e+00 -2.90172e+00  5.52608e+01
3
# CELL(abcABC): 1322.94304  1322.94304  1322.94304    90.00000    90.00000    90.00000  Step:        2700  Bead:      10 positions{angstrom}  cell{angstrom}
       E -1.30458e+01 -1.43586e+01  5.22873e+01
       E -8.13253e+01 -4.35107e+01 -4.56499e+01
       E  1.24139e+01 -1.70642e+01  3.43174e+01
3
# CELL(abcABC): 1322.94304  1322.94304  1322.94304    90.00000    90.00000    90.00000  Step:        2800  Bead:      10 positions{angstrom}  cell{angstrom}
       E -5.32489e+01 -3.76145e+01  9.18374e+00
       E -7.69302e+01 -7.79289e+01 -1.86341e+01
       E  3.40098e+01  8.65850e-01  6.47077e+01
3
# CELL(abcABC): 1322.94304  1322.94304  1322.94304    90.00000    90.00000    90.00000  Step:        2900  Bead:      10 positions{angstrom}  cell{angstrom}
       E -3.90246e+01 -5.08522e+01 -5.50879e+00
       E -6.04484e+01 -7.23514e+01 -1.34667e+01
       E  3.74025e+01  4.47886e+01  1.66662e+01
3
# CELL(abcABC): 1322.94304  1322.94304  1322.94304    90.00000    90.00000    90.00000  Step:        3000  Bead:      10 positions{angstrom}  cell{angstrom}
       E -3.11766e+01 -4.01391e+01  1.33479e+01
       E -3.82795e+01 -8.05645e+01  2.64806e+01
       E  6.53620e+01  4.03575e+01  6.41053e+00
3
# CELL(abcABC): 1322.94304  1322.94304  1322.94304    90.00000    90.00000    90.00000  Step:        3100  Bead:      10 positions{angstrom}  cell{angstrom}
       E -3.83731e+01 -1.76391e+01  3.22400e+01
       E -5.64579e+01 -5.29132e+01  3.36719e+01
       E  3.05389e+01  4.69544e+01  1.21785e+01
3
# CELL(abcABC): 1322.94304  1322.94304  1322.94304    90.00000    90.00000    90.00000  Step:        3200  Bead:      10 positions{angstrom}  cell{angstrom}
       E -3.81353e+01 -1.48479e+01  3.37060e+01
       E -9.53036e+01 -2.88956e+01  7.85553e+01
       E  4.44447e+01  8.88530e+01  6.47117e+00
3
# CELL(abcABC): 1322.94304  1322.94304  1322.94304    90.00000    90.00000    90.00000  Step:        3300  Bead:      10 positions{angstrom}  cell{angstrom}
       E -4.28192e+01 -5.05483e+01  3.55102e+01
       E -1.02260e+02 -4.88241e+01  6.62425e+01
       E  3.01045e+01  5.56633e+01  3.65483e+01
3
# CELL(abcABC): 1322.94304  1322.94304  1322.94304    90.00000    90.00000    90.00000  Step:        3400  Bead:      10 positions{angstrom}  cell{angstrom}
       E -4.71748e+01 -8.12677e+00  3.77291e+00
       E -5.76006e+01 -4.14776e+01  7.39303e+01
       E -5.63108e+00  6.72381e+01  6.49024e+01
3
# CELL(abcABC): 1322.94304  1322.94304  1322.94304    90.00000    90.00000    90.00000  Step:        3500  Bead:      10 positions{angstrom}  cell{angstrom}
       E -6.08080e+01 -1.72681e+01  3.45673e+01
       E -1.11290e+01 -3.81638e+01  4.68769e+01
       E  9.50707e+00  7.25485e+01  7.09069e+01
3
# CELL(abcABC): 1322.94304  1322.94304  1322.94304    90.00000    90.00000    90.00000  Step:        3600  Bead:      10 positions{angstrom}  cell{angstrom}
       E -8.16134e+01 -6.03517e+00  1.91744e+01
       E -2.56424e+01 -3.97110e+01  1.97598e+01
       E -2.43999e+01  6.18330e+01  8.98509e+00
3
# CELL(abcABC): 1322.94304  1322.94304  1322.94304    90.00000    90.00000    90.00000  Step:        3700  Bead:      10 positions{angstrom}  cell{angstrom}
       E -9.04659e+01 -2.50560e+01  9.12164e+00
       E -1.71550e+01 -3.39429e+00  1.78225e+01
       E  1.67525e+00  3.08821e+01  9.19328e-01
3
# CELL(abcABC): 1322.94304  1322.94304  1322.94304    90.00000    90.00000    90.00000  Step:        3800  Bead:      10 positions{angstrom}  cell{angstrom}
       E -9.71609e+01 -1.17799e+01 -1.98768e+01
       E -2.40529e+01 -2.21562e+01 -2.27928e+01
       E -3.52753e+01  1.38327e+01 -8.03829e+00
3
# CELL(abcABC): 1322.94304  1322.94304  1322.94304    90.00000    90.00000    90.00000  Step:        3900  Bead:      10 positions{angstrom}  cell{angstrom}
       E -7.55685e+01  1.40562e+01 -2.48717e+01
       E  9.56522e+00 -2.05655e+01 -3.43353e+01
       E -5.34135e+00  1.29077e+01 -3.89119e+01
3
# CELL(abcABC): 1322.94304  1322.94304  1322.94304    90.00000    90.00000    90.00000  Step:        4000  Bead:      10 positions{angstrom}  cell{angstrom}
       E -1.18995e+02  3.80265e+01 -4.63277e+01
       E -4.85270e+01  1.64035e+01  8.97703e+00
       E -3.40603e+01 -1.70924e+00  4.65798e+00
3
# CELL(abcABC): 1322.94304  1322.94304  1322.94304    90.00000    90.00000    90.00000  Step:        4100  Bead:      10 positions{angstrom}  cell{angstrom}
       E -1.11126e+02  6.17439e+01 -5.04556e+01
       E -2.58599e+01  3.23801e+01  4.89588e+01
       E -1.87098e+01  9.72268e+00  6.68384e+01
3
# CELL(abcABC): 1322.94304  1322.94304  1322.94304    90.00000    90.00000    90.00000  Step:        4200  Bead:      10 positions{angstrom}  cell{angstrom}
       E -7.35351e+01  5.46585e+01 -5.42668e+01
       E -3.64806e+01  9.94899e+00  3.73975e+01
       E -2.42848e+00  2.69301e+01  5.56186e+01
3
# CELL(abcABC): 1322.94304  1322.94304  1322.94304    90.00000    90.00000    90.00000  Step:        4300  Bead:      10 positions{angstrom}  cell{angstrom}
       E -5.69522e+01  4.85390e+01 -7.87764e+01
       E -7.44846e+01  3.13824e+01  6.15712e+01
       E -1.70753e+01  2.34113e+01  8.64906e-01
3
# CELL(abcABC): 1322.94304  1322.94304  1322.94304    90.00000    90.00000    90.00000  Step:        4400  Bead:      10 positions{angstrom}  cell{angstrom}
       E -6.51722e+01  3.51912e+00 -9.32168e+01
       E -7.33901e+01  1.03133e+02  3.05701e+01
       E -5.88984e+01 -4.79839e+00  1.17681e+01
3
# CELL(abcABC): 1322.94304  1322.94304  1322.94304    90.00000    90.00000    90.00000  Step:        4500  Bead:      10 positions{angstrom}  cell{angstrom}
       E -6.73966e+01  7.41825e+00 -1.01340e+02
       E -6.31397e+01  7.12788e+01  6.12031e+00
       E -1.01931e+01 -1.72171e+01  1.64838e+01
3
# CELL(abcABC): 1322.94304  1322.94304  1322.94304    90.00000    90.00000    90.00000  Step:        4600  Bead:      10 positions{angstrom}  cell{angstrom}
       E  2.72471e+00  2.66197e+01 -6.55398e+01
       E -4.99414e+01  2.61531e+01 -1.81812e+01
       E  2.62317e+01 -1.39875e+01  3.83711e+01
3
# CELL(abcABC): 1322.94304  1322.94304  1322.94304    90.00000    90.00000    90.00000  Step:        4700  Bead:      10 positions{angstrom}  cell{angstrom}
       E  1.35535e+01  4.68267e+01 -5.60735e+01
       E -3.06896e+01  5.58765e+01 -3.13848e+01
       E  7.27873e+01 -7.05231e+00  1.07243e+00
3
# CELL(abcABC): 1322.94304  1322.94304  1322.94304    90.00000    90.00000    90.00000  Step:        4800  Bead:      10 positions{angstrom}  cell{angstrom}
       E  2.06605e+01  8.57847e+01 -3.88630e+01
       E -6.86627e+01  3.85685e+01 -6.98340e+00
       E  3.55148e+01  2.76903e+01 -1.88527e+01
3
# CELL(abcABC): 1322.94304  1322.94304  1322.94304    90.00000    90.00000    90.00000  Step:        4900  Bead:      10 positions{angstrom}  cell{angstrom}
       E  2.16731e+01  3.55542e+01 -2.06707e+01
       E -6.54028e+01 -2.41031e+01 -2.81682e+01
       E  2.17906e+01  3.60171e+00 -2.52885e+01
3
# CELL(abcABC): 1322.94304  1322.94304  1322.94304    90.00000    90.00000    90.00000  Step:        5000  Bead:      10 positions{angstrom}  cell{angstrom}
       E  5.78162e+00  2.03414e+01  3.22542e+00
       E -3.85978e+01 -5.96645e+00 -4.36958e+01
       E  5.12200e+00 -2.06029e+01 -2.44719e+01
3
# CELL(abcABC): 1322.94304  1322.94304  1322.94304    90.00000    90.00000    90.00000  Step:        5100  Bead:      10 positions{angstrom}  cell{angstrom}
       E  1.42861e+01  5.98456e+00  4.76665e+01
       E -3.13344e+01 -1.81064e+01 -1.95851e+01
       E  2.95977e+00 -3.03629e+00  6.82539e+00
3
# CELL(abcABC): 1322.94304  1322.94304  1322.94304    90.00000    90.00000    90.00000  Step:        5200  Bead:      10 positions{angstrom}  cell{angstrom}
       E  1.48762e+01  6.79641e+00  2.53196e+01
       E -3.22868e+01  1.32094e+01 -2.62051e+01
       E  1.19974e+01  1.44465e-01  1.70501e+01
3
# CELL(abcABC): 1322.94304  1322.94304  1322.94304    90.00000    90.00000    90.00000  Step:        5300  Bead:      10 positions{angstrom}  cell{angstrom}
       E  2.06658e+01  6.15111e+01  4.03094e+01
       E -1.53788e+01  1.73840e+01 -2.01342e+01
       E  3.47298e+01  5.60786e+01  2.94988e+01
3
# CELL(abcABC): 1322.94304  1322.94304  1322.94304    90.00000    90.00000    90.00000  Step:        5400  Bead:      10 positions{angstrom}  cell{angstrom}
       E  1.03999e+01  2.73939e+01  2.80512e+01
       E -2.09570e+01  2.90020e+01 -4.85268e+01
       E -2.88674e+00  2.74795e+01  4.12272e+01
3
# CELL(abcABC): 1322.94304  1322.94304  1322.94304    90.00000    90.00000    90.00000  Step:        5500  Bead:      10 positions{angstrom}  cell{angstrom}
       E -4.97820e+00  3.73416e+01  5.01969e+01
       E -5.93409e+01  1.25235e+01 -4.21016e+01
       E -1.74250e+01  1.16539e+00  1.25139e+01
3
# CELL(abcABC): 1322.94304  1322.94304  1322.94304    90.00000    90.00000    90.00000  Step:        5600  Bead:      10 positions{angstrom}  cell{angstrom}
       E -1.63538e+01  1.32156e+01  2.29491e+01
       E -5.24036e+01  7.03506e+00 -3.15524e+01
       E -2.56025e+01  2.56681e+00  1.11999e+01
3
# CELL(abcABC): 1322.94304  1322.94304  1322.94304    90.00000    90.00000    90.00000  Step:        5700  Bead:      10 positions{angstrom}  cell{angstrom}
       E -6.85378e+00  3.85835e+01 -1.27337e+01
       E -3.72364e+01  3.77133e+01 -2.64529e+01
       E -1.47383e+01 -9.53270e+00  3.79458e+01
3
# CELL(abcABC): 1322.94304  1322.94304  1322.94304    90.00000    90.00000    90.00000  Step:        5800  Bead:      10 positions{angstrom}  cell{angstrom}
       E  2.15243e+01  1.29469e+01 -1.40376e+01
       E -4.97231e+01  3.38416e+01 -2.09128e+01
       E -8.32368e+00  1.06176e+01  1.30648e+01
3
# CELL(abcABC): 1322.94304  1322.94304  1322.94304    90.00000    90.00000    90.00000  Step:        5900  Bead:      10 positions{angstrom}  cell{angstrom}
       E  1.72440e+01 -1.94174e+01 -5.87297e+00
       E -2.79199e+01  2.93322e+01 -3.82107e+01
       E -9.44212e+00 -4.21053e+00  1.69496e+01
3
# CELL(abcABC): 1322.94304  1322.94304  1322.94304    90.00000    90.00000    90.00000  Step:        6000  Bead:      10 positions{angstrom}  cell{angstrom}
       E  4.56227e+01 -2.39450e+01 -1.46212e+01
       E -3.25776e+01  1.31547e+01 -1.17904e+01
       E  8.77802e-01 -9.03338e+00  3.74974e+01
3
# CELL(abcABC): 1322.94304  1322.94304  1322.94304    90.00000    90.00000    90.00000  Step:        6100  Bead:      10 positions{angstrom}  cell{angstrom}
       E  3.14571e+01 -5.76393e+01 -5.90595e+01
       E  2.76302e+01 -1.13297e+01  3.78541e+01
       E -1.99619e+01 -1.77751e+01 -5.06095e+00
3
# CELL(abcABC): 1322.94304  1322.94304  1322.94304    90.00000    90.00000    90.00000  Step:        6200  Bead:      10 positions{angstrom}  cell{angstrom}
       E  1.27090e+01 -3.90674e+01 -8.74134e+01
       E  7.30904e+01  2.82511e+01 -8.36830e+00
       E  1.75187e+01 -2.21407e+00  1.87738e+01
3
# CELL(abcABC): 1322.94304  1322.94304  1322.94304    90.00000    90.00000    90.00000  Step:        6300  Bead:      10 positions{angstrom}  cell{angstrom}
       E  3.51704e+01 -4.34847e+01 -9.59546e+01
       E  9.01017e+01 -1.58706e+01 -3.81960e+01
       E  1.34582e+01 -6.74935e+00 -1.18442e+01
3
# CELL(abcABC): 1322.94304  1322.94304  1322.94304    90.00000    90.00000    90.00000  Step:        6400  Bead:      10 positions{angstrom}  cell{angstrom}
       E  4.00547e+01 -7.09277e+01 -8.24195e+01
       E  1.10510e+02 -1.07489e+01 -3.10066e+01
       E -2.33068e+01 -1.03064e+01  2.40657e+01
3
# CELL(abcABC): 1322.94304  1322.94304  1322.94304    90.00000    90.00000    90.00000  Step:        6500  Bead:      10 positions{angstrom}  cell{angstrom}
       E -9.84079e-01 -9.54114e+01 -1.10852e+02
       E  4.73311e+01 -3.07952e+01 -4.05280e+01
       E -2.53155e+00 -4.27396e+01  5.27621e+01
3
# CELL(abcABC): 1322.94304  1322.94304  1322.94304    90.00000    90.00000    90.00000  Step:        6600  Bead:      10 positions{angstrom}  cell{angstrom}
       E -2.02618e+01 -9.39930e+01 -1.02737e+02
       E  5.29103e+01 -4.15128e+01  2.65846e+01
       E  1.51609e+01 -1.16973e+01  3.34026e+01
3
# CELL(abcABC): 1322.94304  1322.94304  1322.94304    90.00000    90.00000    90.00000  Step:        6700  Bead:      10 positions{angstrom}  cell{angstrom}
       E -1.83631e-01 -6.54711e+01 -1.04640e+02
       E  3.57060e+01 -3.76854e+01 -3.25149e+00
       E -1.05510e+01  5.59790e+00  1.96901e+00
3
# CELL(abcABC): 1322.94304  1322.94304  1322.94304    90.00000    90.00000    90.00000  Step:        6800  Bead:      10 positions{angstrom}  cell{angstrom}
       E  1.01649e+01 -4.74746e+01 -5.29023e+01
       E  5.96402e+01 -3.27795e+00 -7.52771e+00
       E  2.39501e+00  4.58657e+01  9.65354e+00
3
# CELL(abcABC): 1322.94304  1322.94304  1322.94304    90.00000    90.00000    90.00000  Step:        6900  Bead:      10 positions{angstrom}  cell{angstrom}
       E -1.21495e+01 -5.39789e+01 -6.13187e+01
       E  1.12004e+01 -3.33280e+01 -3.20688e+01
       E  1.11970e+01  4.67925e+01  2.22202e+01
3
# CELL(abcABC): 1322.94304  1322.94304  1322.94304    90.00000    90.00000    90.00000  Step:        7000  Bead:      10 positions{angstrom}  cell{angstrom}
       E -3.24919e+01 -4.19976e+01 -4.02114e+01
       E -5.42959e+00 -1.70257e+01  7.71147e+00
       E  2.05333e+01  3.13848e+01  3.77060e+01
3
# CELL(abcABC): 1322.94304  1322.94304  1322.94304    90.00000    90.00000    90.00000  Step:        7100  Bead:      10 positions{angstrom}  cell{angstrom}
       E -7.01905e+00 -2.40826e+01 -2.40980e+01
       E -2.25283e+01 -1.64581e+01  3.85361e+01
       E  7.24616e+00  5.04991e+01  5.77228e+01
3
# CELL(abcABC): 1322.94304  1322.94304  1322.94304    90.00000    90.00000    90.00000  Step:        7200  Bead:      10 positions{angstrom}  cell{angstrom}
       E  3.99241e+00 -3.06025e+01 -8.31895e+00
       E -5.42273e+01  3.28477e+00  2.88606e+01
       E  4.54630e+01  4.11968e+01  1.10462e+01
3
# CELL(abcABC): 1322.94304  1322.94304  1322.94304    90.00000    90.00000    90.00000  Step:        7300  Bead:      10 positions{angstrom}  cell{angstrom}
       E -2.44251e+01 -3.25539e+01 -3.99442e+01
       E -8.90625e+00  7.48786e+01  4.92244e+01
       E  6.92028e+01  3.06307e+01 -3.93894e+00
3
# CELL(abcABC): 1322.94304  1322.94304  1322.94304    90.00000    90.00000    90.00000  Step:        7400  Bead:      10 positions{angstrom}  cell{angstrom}
       E -4.75464e+00 -4.39812e+01 -3.61987e+01
       E  8.90420e-01  6.87047e+01  1.97787e+01
       E  6.54161e+01  5.23560e+01 -1.00195e+01
3
# CELL(abcABC): 1322.94304  1322.94304  1322.94304    90.00000    90.00000    90.00000  Step:        7500  Bead:      10 positions{angstrom}  cell{angstrom}
       E -2.77770e+01 -7.42706e+01 -5.27936e+01
       E -2.04074e+01 -5.59303e+00  1.97722e+00
       E  6.03907e+01  3.69462e+01 -1.92301e+01
3
# CELL(abcABC): 1322.94304  1322.94304  1322.94304    90.00000    90.00000    90.00000  Step:        7600  Bead:      10 positions{angstrom}  cell{angstrom}
       E  8.11805e+00 -9.20917e+01 -3.15025e+01
       E -1.04845e+01 -5.24680e+01 -3.06718e+01
       E  6.31575e+01  3.18351e+01 -1.24727e+01
3
# CELL(abcABC): 1322.94304  1322.94304  1322.94304    90.00000    90.00000    90.00000  Step:        7700  Bead:      10 positions{angstrom}  cell{angstrom}
       E  1.65971e+01 -6.02797e+01 -2.34214e+01
       E  2.73740e+00 -7.03460e+01 -3.98959e+01
       E  1.76588e+01  3.91978e+01 -2.63250e+01
3
# CELL(abcABC): 1322.94304  1322.94304  1322.94304    90.00000    90.00000    90.00000  Step:        7800  Bead:      10 positions{angstrom}  cell{angstrom}
       E  1.04211e+01 -4.22929e+01 -2.94471e+01
       E -2.12033e+01 -7.84945e+01 -3.81724e+01
       E  4.31088e+01  2.03121e+01 -7.41307e+01
3
# CELL(abcABC): 1322.94304  1322.94304  1322.94304    90.00000    90.00000    90.00000  Step:        7900  Bead:      10 positions{angstrom}  cell{angstrom}
       E  2.16319e+01 -2.75112e+01 -3.85544e+01
       E -8.49262e+00 -4.16734e+01 -2.87854e+01
       E  1.49261e+01  4.00811e+01 -5.75104e+01
3
# CELL(abcABC): 1322.94304  1322.94304  1322.94304    90.00000    90.00000    90.00000  Step:        8000  Bead:      10 positions{angstrom}  cell{angstrom}
       E  4.23398e+00 -1.27732e+01 -3.12557e+01
       E  4.17607e+00 -3.69397e+01 -2.28840e+01
       E  6.38773e+00  5.51979e+01 -3.29498e+01
3
# CELL(abcABC): 1322.94304  1322.94304  1322.94304    90.00000    90.00000    90.00000  Step:        8100  Bead:      10 positions{angstrom}  cell{angstrom}
       E  5.10082e+01  8.35435e+00 -4.41934e+01
       E  1.99620e+01 -8.67462e+00 -1.34642e+01
       E  1.38379e+01  1.68607e+01 -2.98412e+00
3
# CELL(abcABC): 1322.94304  1322.94304  1322.94304    90.00000    90.00000    90.00000  Step:        8200  Bead:      10 positions{angstrom}  cell{angstrom}
       E  1.88026e+01  3.47993e+01 -5.92986e+01
       E -2.81268e+01 -9.12661e+00  8.79365e+00
       E  1.42527e+01 -1.59871e+01 -5.38866e+00
3
# CELL(abcABC): 1322.94304  1322.94304  1322.94304    90.00000    90.00000    90.00000  Step:        8300  Bead:      10 positions{angstrom}  cell{angstrom}
       E  2.85681e+01  3.18217e+01 -4.26658e+01
       E -1.67882e+01  3.85521e+01 -4.59692e+00
       E  3.99106e+01 -4.64735e+01  4.55621e+01
3
# CELL(abcABC): 1322.94304  1322.94304  1322.94304    90.00000    90.00000    90.00000  Step:        8400  Bead:      10 positions{angstrom}  cell{angstrom}
       E  6.21710e+00  2.13352e+01 -2.03703e+01
       E  2.64916e+01  4.21623e+01  2.15191e+01
       E  2.39596e+01 -6.48725e+01  5.77863e+01
3
# CELL(abcABC): 1322.94304  1322.94304  1322.94304    90.00000    90.00000    90.00000  Step:        8500  Bead:      10 positions{angstrom}  cell{angstrom}
       E -5.90574e+01 -5.77504e+00 -1.94262e+01
       E  2.51571e+01  1.20699e+01  2.74906e+00
       E  2.51996e+01 -2.53460e+01  3.86398e+01
3
# CELL(abcABC): 1322.94304  1322.94304  1322.94304    90.00000    90.00000    90.00000  Step:        8600  Bead:      10 positions{angstrom}  cell{angstrom}
       E -6.20615e+01  1.66270e+01 -6.49195e+00
       E  1.15227e+01  2.19073e+01 -5.73440e+01
       E  2.09415e+01 -1.46626e+01  2.04774e+01
3
# CELL(abcABC): 1322.94304  1322.94304  1322.94304    90.00000    90.00000    90.00000  Step:        8700  Bead:      10 positions{angstrom}  cell{angstrom}
       E -2.90251e+01  3.51780e+01  6.94636e+00
       E -3.86687e+00  1.22797e+01 -1.50942e+01
       E  8.72696e+00 -3.05638e+01  2.42238e+01
3
# CELL(abcABC): 1322.94304  1322.94304  1322.94304    90.00000    90.00000    90.00000  Step:        8800  Bead:      10 positions{angstrom}  cell{angstrom}
       E -1.11517e+01  4.21681e+01  2.92575e+01
       E  9.38469e+00 -4.51963e+00 -7.25367e-01
       E  2.93712e+01 -5.63662e+01  5.25676e+01
3
# CELL(abcABC): 1322.94304  1322.94304  1322.94304    90.00000    90.00000    90.00000  Step:        8900  Bead:      10 positions{angstrom}  cell{angstrom}
       E -3.01449e+01 -2.67287e+01  2.74093e+01
       E  4.68039e+00 -4.44745e+01  4.94841e+01
       E  7.07958e+00 -6.72418e+01  5.74885e+01
3
# CELL(abcABC): 1322.94304  1322.94304  1322.94304    90.00000    90.00000    90.00000  Step:        9000  Bead:      10 positions{angstrom}  cell{angstrom}
       E -1.03730e+01  1.36201e+01  2.08813e+01
       E -1.07824e+01 -2.10065e+00  4.05790e+01
       E  3.58745e+01 -3.97665e+01  7.01129e+00
3
# CELL(abcABC): 1322.94304  1322.94304  1322.94304    90.00000    90.00000    90.00000  Step:        9100  Bead:      10 positions{angstrom}  cell{angstrom}
       E  5.29183e+00  2.55550e+01 -6.07710e+00
       E -4.26741e+01 -1.37814e+01  4.88375e+01
       E  1.26834e+01 -6.34399e+00  2.96202e+01
3
# CELL(abcABC): 1322.94304  1322.94304  1322.94304    90.00000    90.00000    90.00000  Step:        9200  Bead:      10 positions{angstrom}  cell{angstrom}
       E -3.45943e+00  3.66700e+01  9.94260e+00
       E  8.46031e+00  8.99418e+00  4.48240e+01
       E  3.23399e-01 -7.50321e+01  2.83402e+01
3
# CELL(abcABC): 1322.94304  1322.94304  1322.94304    90.00000    90.00000    90.00000  Step:        9300  Bead:      10 positions{angstrom}  cell{angstrom}
       E  2.04495e+01  4.79871e+01 -2.25958e+01
       E -1.16305e+01 -9.82070e+00  8.93565e+00
       E  2.96557e+01 -5.65884e+01  9.02103e+00
3
# CELL(abcABC): 1322.94304  1322.94304  1322.94304    90.00000    90.00000    90.00000  Step:        9400  Bead:      10 positions{angstrom}  cell{angstrom}
       E  3.51976e+01  6.44418e+01 -5.52275e+01
       E -1.99968e+01 -4.46492e+01  3.46364e+01
       E  4.34598e+01 -5.04592e+01  2.79003e+01
3
# CELL(abcABC): 1322.94304  1322.94304  1322.94304    90.00000    90.00000    90.00000  Step:        9500  Bead:      10 positions{angstrom}  cell{angstrom}
       E  1.38102e+01  6.96989e+01 -5.14389e+01
       E -1.25330e+01 -5.14107e+01  3.72527e+01
       E  4.80402e+01 -4.00100e+01 -8.39987e+00
3
# CELL(abcABC): 1322.94304  1322.94304  1322.94304    90.00000    90.00000    90.00000  Step:        9600  Bead:      10 positions{angstrom}  cell{angstrom}
       E  2.76313e+01  4.92019e+01 -2.58888e+01
       E  4.87581e+01 -4.98125e+01  3.98929e+01
       E  1.60379e+01 -2.56002e+01 -1.34901e+00
3
# CELL(abcABC): 1322.94304  1322.94304  1322.94304    90.00000    90.00000    90.00000  Step:        9700  Bead:      10 positions{angstrom}  cell{angstrom}
       E  1.21092e+01 -1.91785e+01 -6.87597e+01
       E  6.80407e+01 -6.02976e+01  2.05723e+01
       E  2.13181e+01 -2.83699e+01  7.93259e+00
3
# CELL(abcABC): 1322.94304  1322.94304  1322.94304    90.00000    90.00000    90.00000  Step:        9800  Bead:      10 positions{angstrom}  cell{angstrom}
       E -1.64810e+01 -5.58093e+01 -7.82567e+01
       E  2.14531e+01 -7.81618e+01 -1.13713e+01
       E  2.88467e+01 -3.07426e+01  5.53501e-01
3