3
# CELL(abcABC): 1322.94304  1322.94304  1322.94304    90.00000    90.00000    90.00000  Step:           0  Bead:       3 positions{angstrom}  cell{angstrom}
       E  0.00000e+00  0.00000e+00  0.00000e+00
       E  0.00000e+00  0.00000e+00  0.00000e+00
       E  0.00000e+00  0.00000e+00  0.00000e+00
3
# CELL(abcABC): 1322.94304  1322.94304  1322.94304    90.00000    90.00000    90.00000  Step:         100  Bead:       3 positions{angstrom}  cell{angstrom}
       E -4.01038e+01 -5.60185e+01 -7.68188e-01
       E  1.06750e+01 -6.01792e+00 -3.76188e+00
       E -1.39979e+01  2.09997e+01  1.60470e+01
3
# CELL(abcABC): 1322.94304  1322.94304  1322.94304    90.00000    90.00000    90.00000  Step:         200  Bead:       3 positions{angstrom}  cell{angstrom}
       E -1.37960e+01 -9.20790e+00 -1.38637e+00
       E  1.98376e+01  1.33876e+01 -3.09664e+01
       E  1.33238e+00  9.22566e+00  1.59416e+01
3
# CELL(abcABC): 1322.94304  1322.94304  1322.94304    90.00000    90.00000    90.00000  Step:         300  Bead:       3 positions{angstrom}  cell{angstrom}
       E  4.76015e+01 -2.24287e+00 -2.28305e+01
       E  3.71929e+00 -3.67915e+00  1.07192e+00
       E -1.75877e+01  3.02092e+00  3.86485e+01
3
# CELL(abcABC): 1322.94304  1322.94304  1322.94304    90.00000    90.00000    90.00000  Step:         400  Bead:       3 positions{angstrom}  cell{angstrom}
       E  5.16270e+01 -3.75828e-01 -4.17035e-02
       E  2.00687e+01 -7.59692e+00  8.18904e+00
       E -2.17704e+01  2.53165e+01  2.12327e+01
3
# CELL(abcABC): 1322.94304  1322.94304  1322.94304    90.00000    90.00000    90.00000  Step:         500  Bead:       3 positions{angstrom}  cell{angstrom}
       E  7.53419e+00 -1.11327e-01 -1.84461e+01
       E  3.12527e+01  1.32202e+01  2.56808e+01
       E -1.70112e+01  3.51367e+01 -1.06769e+00
3
# CELL(abcABC): 1322.94304  1322.94304  1322.94304    90.00000    90.00000    90.00000  Step:         600  Bead:       3 positions{angstrom}  cell{angstrom}
       E -4.52899e+00  1.19871e+01 -6.89705e+01
       E -1.53496e+01 -1.12234e+00  4.33135e+01
       E -1.40826e+01  1.54814e+01  3.49547e+01
3
# CELL(abcABC): 1322.94304  1322.94304  1322.94304    90.00000    90.00000    90.00000  Step:         700  Bead:       3 positions{angstrom}  cell{angstrom}
       E -2.05803e+01  1.98172e+01 -3.70145e+01
       E -1.90299e+01 -1.08288e+01  1.96363e+01
       E  1.87516e+00  2.16643e+01  5.57018e+01
3
# CELL(abcABC): 1322.94304  1322.94304  1322.94304    90.00000    90.00000    90.00000  Step:         800  Bead:       3 positions{angstrom}  cell{angstrom}
       E -2.91718e+00  2.03253e+01 -5.08996e+01
       E -1.14127e+01  5.83392e+00  1.05993e+01
       E -4.69424e+01  4.54931e+01  6.48866e+01
3
# CELL(abcABC): 1322.94304  1322.94304  1322.94304    90.00000    90.00000    90.00000  Step:         900  Bead:       3 positions{angstrom}  cell{angstrom}
       E  1.53925e+01 -1.36853e+01 -2.97858e+01
       E  3.05603e+01 -1.94251e+00  2.40582e+01
       E -5.17284e+01  5.45642e+01  1.08062e+02
3
# CELL(abcABC): 1322.94304  1322.94304  1322.94304    90.00000    90.00000    90.00000  Step:        1000  Bead:       3 positions{angstrom}  cell{angstrom}
       E -6.14431e+00 -1.23744e+01 -7.93013e+01
       E  3.49030e+01  1.89713e+01 -2.88091e+01
       E -9.92230e+00  2.34140e+00  1.19720e+02
3
# CELL(abcABC): 1322.94304  1322.94304  1322.94304    90.00000    90.00000    90.00000  Step:        1100  Bead:       3 positions{angstrom}  cell{angstrom}
       E -7.69222e+00  3.12504e+01 -7.54361e+01
       E  4.12495e+01 -2.07602e+00 -4.74125e+01
       E -3.37453e+01 -2.53207e+01  6.33934e+01
3
# CELL(abcABC): 1322.94304  1322.94304  1322.94304    90.00000    90.00000    90.00000  Step:        1200  Bead:       3 positions{angstrom}  cell{angstrom}
       E  1.99174e+01  3.67178e+01 -5.60095e+01
       E  4.38060e+01 -2.45242e+01 -4.74369e+01
       E -1.32123e+01 -2.54476e+00  4.32224e+01
3
# CELL(abcABC): 1322.94304  1322.94304  1322.94304    90.00000    90.00000    90.00000  Step:        1300  Bead:       3 positions{angstrom}  cell{angstrom}
       E  6.89949e+00  2.36917e+01 -6.55760e+01
       E -3.32499e+00 -6.36427e+01 -2.21375e+01
       E -1.82191e+01  5.15993e+01  3.26802e+01
3
# CELL(abcABC): 1322.94304  1322.94304  1322.94304    90.00000    90.00000    90.00000  Step:        1400  Bead:       3 positions{angstrom}  cell{angstrom}
       E -2.46643e+01  2.69386e+00 -6.02088e+01
       E -1.31132e+01 -1.05112e+01 -6.18555e+01
       E -6.01490e+01  2.84991e+01  4.90458e+01
3
# CELL(abcABC): 1322.94304  1322.94304  1322.94304    90.00000    90.00000    90.00000  Step:        1500  Bead:       3 positions{angstrom}  cell{angstrom}
       E -5.91509e+01  3.17439e+01 -4.55772e+01
       E -7.84055e+00 -1.28038e+01 -6.33594e+01
       E -3.06697e+01  2.12198e+01  1.61846e+01
3
# CELL(abcABC): 1322.94304  1322.94304  1322.94304    90.00000    90.00000    90.00000  Step:        1600  Bead:       3 positions{angstrom}  cell{angstrom}
       E -2.19690e+01  3.99282e+01 -4.09912e+01
       E  2.59552e+00 -2.53510e+01 -1.12346e+01
       E -3.44841e+01  4.93345e+01  2.18275e+01
3
# CELL(abcABC): 1322.94304  1322.94304  1322.94304    90.00000    90.00000    90.00000  Step:        1700  Bead:       3 positions{angstrom}  cell{angstrom}
       E -2.67287e+01  2.45801e+01 -2.33153e+01
       E -1.39490e+01 -1.10263e+01  1.43519e+00
       E -2.59396e+01  8.42098e+01  2.08681e+01
3
# CELL(abcABC): 1322.94304  1322.94304  1322.94304    90.00000    90.00000    90.00000  Step:        1800  Bead:       3 positions{angstrom}  cell{angstrom}
       E -4.42076e+01  2.09259e+01  8.04393e+00
       E -4.95666e+01  1.70573e+01 -4.02249e-01
       E -7.43925e+01  5.21559e+01  3.95223e+01
3
# CELL(abcABC): 1322.94304  1322.94304  1322.94304    90.00000    90.00000    90.00000  Step:        1900  Bead:       3 positions{angstrom}  cell{angstrom}
       E -2.65450e+01  1.08314e+01  9.69650e+00
       E -6.79939e+01 -1.84556e+01 -9.77827e+00
       E -7.54658e+01  1.54162e+01  4.98098e+01
3
# CELL(abcABC): 1322.94304  1322.94304  1322.94304    90.00000    90.00000    90.00000  Step:        2000  Bead:       3 positions{angstrom}  cell{angstrom}
       E -1.49547e+01 -5.36716e+00  4.35431e+01
       E -5.74191e+01  4.34744e+00  4.34845e+01
       E -4.23029e+01  7.86069e+01  4.18058e+01
3
# CELL(abcABC): 1322.94304  1322.94304  1322.94304    90.00000    90.00000    90.00000  Step:        2100  Bead:       3 positions{angstrom}  cell{angstrom}
       E -2.78992e+01 -4.52210e+01  2.83163e+01
       E -4.53292e+01 -1.06846e+01  2.21080e+01
       E -6.48596e+01  6.89306e+01  2.22651e+01
3
# CELL(abcABC): 1322.94304  1322.94304  1322.94304    90.00000    90.00000    90.00000  Step:        2200  Bead:       3 positions{angstrom}  cell{angstrom}
       E  8.71060e+00 -5.98168e+01  3.90004e+01
       E -7.26556e+01 -1.79305e+01 -6.20103e+00
       E -3.91852e+01  5.65524e+01  1.75233e+01
3
# CELL(abcABC): 1322.94304  1322.94304  1322.94304    90.00000    90.00000    90.00000  Step:        2300  Bead:       3 positions{angstrom}  cell{angstrom}
       E  1.93616e+01 -5.26270e+01  8.47426e+00
       E -1.75680e+01 -5.56025e+01 -2.96983e+01
       E -1.59172e+00  9.98481e+01  3.52713e+01
3
# CELL(abcABC): 1322.94304  1322.94304  1322.94304    90.00000    90.00000    90.00000  Step:        2400  Bead:       3 positions{angstrom}  cell{angstrom}
       E -1.13182e+01 -2.43628e+01  1.98458e+01
       E  1.75881e+01 -5.89266e+01 -2.03339e+01
       E -8.47802e+00  3.77780e+01  2.58592e+01
3
# CELL(abcABC): 1322.94304  1322.94304  1322.94304    90.00000    90.00000    90.00000  Step:        2500  Bead:       3 positions{angstrom}  cell{angstrom}
       E  2.19554e+01 -1.55705e+01  4.74950e+01
       E -3.80150e+00 -2.31528e+01 -2.16836e+01
       E -2.64981e+01 -2.02299e+01  6.69258e+01
3
# CELL(abcABC): 1322.94304  1322.94304  1322.94304    90.00000    90.00000    90.00000  Step:        2600  Bead:       3 positions{angstrom}  cell{angstrom}
       E  9.86759e+00 -2.68853e+01  1.04025e+02
       E -2.55302e+01 -4.16871e+01 -3.58025e+01
       E -3.05522e+01 -4.09883e+01  3.27963e+01
3
# CELL(abcABC): 1322.94304  1322.94304  1322.94304    90.00000    90.00000    90.00000  Step:        2700  Bead:       3 positions{angstrom}  cell{angstrom}
       E -1.22652e+01 -2.25804e+01  5.72334e+01
       E -5.21537e+01 -5.01686e+01 -1.72259e+01
       E -4.75618e-01  1.02937e+01  4.90801e+01
3
# CELL(abcABC): 1322.94304  1322.94304  1322.94304    90.00000    90.00000    90.00000  Step:        2800  Bead:       3 positions{angstrom}  cell{angstrom}
       E -1.14733e+01 -7.35667e+01  4.53718e+01
       E -3.41614e+01 -2.84686e+01 -3.60534e+01
       E  2.37847e+01  1.68840e+01  3.12485e+01
3
# CELL(abcABC): 1322.94304  1322.94304  1322.94304    90.00000    90.00000    90.00000  Step:        2900  Bead:       3 positions{angstrom}  cell{angstrom}
       E -7.13478e+01 -8.23623e+01  3.07471e+01
       E -3.55261e+01 -4.59206e+01  2.09708e+00
       E  5.65093e+01 -5.64989e-01  5.18795e+01
3
# CELL(abcABC): 1322.94304  1322.94304  1322.94304    90.00000    90.00000    90.00000  Step:        3000  Bead:       3 positions{angstrom}  cell{angstrom}
       E -5.35058e+01 -2.35799e+01 -4.18966e+00
       E -3.77969e+01 -4.92145e+01  9.85625e+00
       E  5.91080e+01 -2.08089e+01  1.65853e+01
3
# CELL(abcABC): 1322.94304  1322.94304  1322.94304    90.00000    90.00000    90.00000  Step:        3100  Bead:       3 positions{angstrom}  cell{angstrom}
       E -6.92069e+01 -4.97092e+01  2.93401e+01
       E -2.15770e+01 -7.92017e+01  4.89847e+01
       E  6.95478e+00  8.60011e+00  1.73982e+01
3
# CELL(abcABC): 1322.94304  1322.94304  1322.94304    90.00000    90.00000    90.00000  Step:        3200  Bead:       3 positions{angstrom}  cell{angstrom}
       E -9.21515e+01 -1.09379e+01  7.11746e+01
       E -5.63664e+01 -6.02234e+01  3.01999e+01
       E  8.39671e+01  5.08469e+01  3.02988e+01
3
# CELL(abcABC): 1322.94304  1322.94304  1322.94304    90.00000    90.00000    90.00000  Step:        3300  Bead:       3 positions{angstrom}  cell{angstrom}
       E -8.05839e+01 -2.58367e+01  5.84394e+01
       E -6.24827e+01 -3.13864e+01  5.32922e+01
       E  4.70865e+01  6.24825e+01  7.02201e+01
3
# CELL(abcABC): 1322.94304  1322.94304  1322.94304    90.00000    90.00000    90.00000  Step:        3400  Bead:       3 positions{angstrom}  cell{angstrom}
       E -8.88743e+01 -2.06020e+01  9.82687e+01
       E -7.29401e+01 -5.14832e+01  5.54108e+01
       E  2.52287e+01  3.59568e+01  8.19840e+01
3
# CELL(abcABC): 1322.94304  1322.94304  1322.94304    90.00000    90.00000    90.00000  Step:        3500  Bead:       3 positions{angstrom}  cell{angstrom}
       E -9.02376e+01 -3.48357e+01  5.83129e+00
       E -6.64895e+01 -5.64704e+01  4.55453e+01
       E  8.41244e+00  5.13986e+01  5.79237e+01
3
# CELL(abcABC): 1322.94304  1322.94304  1322.94304    90.00000    90.00000    90.00000  Step:        3600  Bead:       3 positions{angstrom}  cell{angstrom}
       E -7.85063e+01 -3.80096e+01 -1.20997e+01
       E -6.22113e+01 -5.38201e+01  1.08809e+01
       E -3.78609e+01  3.21082e+01  3.23652e+01
3
# CELL(abcABC): 1322.94304  1322.94304  1322.94304    90.00000    90.00000    90.00000  Step:        3700  Bead:       3 positions{angstrom}  cell{angstrom}
       E -4.86802e+01 -5.48006e+01 -2.11941e+01
       E -7.36967e+00 -4.24724e+01  2.73120e+01
       E -4.87266e+01  1.24389e+01  2.34255e+01
3
# CELL(abcABC): 1322.94304  1322.94304  1322.94304    90.00000    90.00000    90.00000  Step:        3800  Bead:       3 positions{angstrom}  cell{angstrom}
       E -7.90574e+01 -4.25846e+01 -2.85068e+01
       E  8.97308e-01 -2.33221e+01 -1.62843e+01
       E -3.64132e+01 -1.27468e+01  6.39990e+00
3
# CELL(abcABC): 1322.94304  1322.94304  1322.94304    90.00000    90.00000    90.00000  Step:        3900  Bead:       3 positions{angstrom}  cell{angstrom}
       E -9.04573e+01 -1.10937e+01  9.34676e-02
       E -3.02629e+01 -1.01470e+01 -5.82330e+01
       E -7.66133e+00 -1.42082e+01  2.66974e+00
3
# CELL(abcABC): 1322.94304  1322.94304  1322.94304    90.00000    90.00000    90.00000  Step:        4000  Bead:       3 positions{angstrom}  cell{angstrom}
       E -1.06986e+02  2.95160e+01 -2.76909e+00
       E -4.52101e+01 -1.28148e+01 -1.55437e+01
       E  9.93729e+00 -4.33413e+01  1.17152e+01
3
# CELL(abcABC): 1322.94304  1322.94304  1322.94304    90.00000    90.00000    90.00000  Step:        4100  Bead:       3 positions{angstrom}  cell{angstrom}
       E -1.07760e+02  4.83931e+01 -5.28132e+01
       E -2.16963e+01  5.93117e+01  1.61427e+01
       E -1.78519e+01  3.80832e+00 -1.27463e+01
3
# CELL(abcABC): 1322.94304  1322.94304  1322.94304    90.00000    90.00000    90.00000  Step:        4200  Bead:       3 positions{angstrom}  cell{angstrom}
       E -5.03749e+01  5.19691e+01 -3.04718e+01
       E -3.49000e+01  4.10757e+01  1.98338e+01
       E -5.92937e+01 -3.32853e+01 -1.99582e+01
3
# CELL(abcABC): 1322.94304  1322.94304  1322.94304    90.00000    90.00000    90.00000  Step:        4300  Bead:       3 positions{angstrom}  cell{angstrom}
       E -6.28009e+01  1.93638e+01 -5.67483e+01
       E -4.44935e+01  2.39282e+01  6.59467e+00
       E -4.96987e+01 -3.83381e+01  3.98112e+01
3
# CELL(abcABC): 1322.94304  1322.94304  1322.94304    90.00000    90.00000    90.00000  Step:        4400  Bead:       3 positions{angstrom}  cell{angstrom}
       E -6.96942e+01  3.74042e+01 -8.39014e+01
       E -6.64863e+01  6.17045e+01  2.70305e+01
       E -4.64513e+01 -2.96273e+01  3.38185e+01
3
# CELL(abcABC): 1322.94304  1322.94304  1322.94304    90.00000    90.00000    90.00000  Step:        4500  Bead:       3 positions{angstrom}  cell{angstrom}
       E -5.04019e+01  4.55641e+01 -5.45084e+01
       E -6.78684e+01  9.09948e+01  2.34087e+01
       E -5.51945e+00 -2.78918e+01  2.92426e+01
3
# CELL(abcABC): 1322.94304  1322.94304  1322.94304    90.00000    90.00000    90.00000  Step:        4600  Bead:       3 positions{angstrom}  cell{angstrom}
       E -4.28452e+01  2.41115e+01 -4.37881e+01
       E -8.21870e+01  3.68585e+01  1.22042e+01
       E -2.08115e+01 -2.38404e+01  3.97406e+01
3
# CELL(abcABC): 1322.94304  1322.94304  1322.94304    90.00000    90.00000    90.00000  Step:        4700  Bead:       3 positions{angstrom}  cell{angstrom}
       E -1.80011e+01  3.26415e+01 -3.07694e+01
       E -6.29228e+01  3.39437e+01  2.20895e+00
       E  3.99832e+00  2.51765e+01  1.75166e+01
3
# CELL(abcABC): 1322.94304  1322.94304  1322.94304    90.00000    90.00000    90.00000  Step:        4800  Bead:       3 positions{angstrom}  cell{angstrom}
       E  9.53576e+00  2.67281e+01 -3.46204e+01
       E -6.56298e+01 -1.97453e+01 -3.85322e+01
       E  3.51362e+01 -3.91486e+00 -4.42887e+01
3
# CELL(abcABC): 1322.94304  1322.94304  1322.94304    90.00000    90.00000    90.00000  Step:        4900  Bead:       3 positions{angstrom}  cell{angstrom}
       E  6.10678e+01  3.15343e+01 -1.54930e+01
       E -1.06746e+02 -5.13155e+01 -2.68935e+01
       E  2.13654e+00  1.46014e+01 -7.11814e+01
3
# CELL(abcABC): 1322.94304  1322.94304  1322.94304    90.00000    90.00000    90.00000  Step:        5000  Bead:       3 positions{angstrom}  cell{angstrom}
       E  4.44491e+01  3.09183e+01 -1.35073e+00
       E -6.15403e+01 -7.15855e+01 -1.88974e+01
       E -4.76332e+00  1.01689e+00 -6.84491e+01
3
# CELL(abcABC): 1322.94304  1322.94304  1322.94304    90.00000    90.00000    90.00000  Step:        5100  Bead:       3 positions{angstrom}  cell{angstrom}
       E  3.61457e+01  3.89367e+01  1.19479e+01
       E -9.08360e+01 -5.85856e+01 -1.64081e-01
       E  4.37057e+01 -5.76557e+00 -1.93985e+01
3
# CELL(abcABC): 1322.94304  1322.94304  1322.94304    90.00000    90.00000    90.00000  Step:        5200  Bead:       3 positions{angstrom}  cell{angstrom}
       E  3.89791e+01  6.46479e+01 -1.93762e+00
       E -2.73755e+01 -2.41231e+01 -3.84149e+00
       E  1.82116e+01  2.64559e+01 -2.36119e+01
3
# CELL(abcABC): 1322.94304  1322.94304  1322.94304    90.00000    90.00000    90.00000  Step:        5300  Bead:       3 positions{angstrom}  cell{angstrom}
       E  1.53660e+01  1.17233e+01  1.32305e+01
       E -5.35677e+01  4.81889e+01 -2.80422e+01
       E  6.54165e+00  3.18071e+01 -2.36327e+01
3
# CELL(abcABC): 1322.94304  1322.94304  1322.94304    90.00000    90.00000    90.00000  Step:        5400  Bead:       3 positions{angstrom}  cell{angstrom}
       E  2.50045e+00  3.98851e+00  3.85142e+01
       E -6.03104e+01  1.61917e+01 -2.85792e+01
       E -1.57514e+01  4.73032e+01  4.57984e+01
3
# CELL(abcABC): 1322.94304  1322.94304  1322.94304    90.00000    90.00000    90.00000  Step:        5500  Bead:       3 positions{angstrom}  cell{angstrom}
       E -1.66712e+01  3.93032e+01  4.14035e+01
       E -2.71725e+01  1.50092e+01 -1.00831e+01
       E -1.38587e+01  2.22191e+01  3.63917e+01
3
# CELL(abcABC): 1322.94304  1322.94304  1322.94304    90.00000    90.00000    90.00000  Step:        5600  Bead:       3 positions{angstrom}  cell{angstrom}
       E  9.49100e+00  5.60893e+01  1.03936e+01
       E -2.05023e+01  1.16904e+01 -1.61852e+00
       E -1.17363e+01  6.59219e+00  3.69833e+01
3
# CELL(abcABC): 1322.94304  1322.94304  1322.94304    90.00000    90.00000    90.00000  Step:        5700  Bead:       3 positions{angstrom}  cell{angstrom}
       E -1.45733e+01  1.28761e+00  4.64177e+00
       E -1.30752e+01  2.71411e+01 -1.74805e+01
       E -5.17815e+01  2.76551e+01  2.06096e+01
3
# CELL(abcABC): 1322.94304  1322.94304  1322.94304    90.00000    90.00000    90.00000  Step:        5800  Bead:       3 positions{angstrom}  cell{angstrom}
       E -3.31538e+01  2.42448e+01  3.20325e+00
       E -2.98920e+01  4.37866e+01  1.72431e+01
       E -2.20779e+01  1.27371e+01  2.10411e+01
3
# CELL(abcABC): 1322.94304  1322.94304  1322.94304    90.00000    90.00000    90.00000  Step:        5900  Bead:       3 positions{angstrom}  cell{angstrom}
       E -1.76822e+01  2.55765e+00 -1.18557e+01
       E -5.09238e+01  2.10578e+01 -3.08961e+01
       E -1.32237e+01 -1.24844e+00 -1.60872e+01
3
# CELL(abcABC): 1322.94304  1322.94304  1322.94304    90.00000    90.00000    90.00000  Step:        6000  Bead:       3 positions{angstrom}  cell{angstrom}
       E -4.00327e+00 -1.33215e+01 -2.42398e+01
       E -2.25580e+01  2.29244e+01 -2.70022e+01
       E  2.22319e+01 -3.50475e+01 -1.45379e+01
3
# CELL(abcABC): 1322.94304  1322.94304  1322.94304    90.00000    90.00000    90.00000  Step:        6100  Bead:       3 positions{angstrom}  cell{angstrom}
       E  4.56987e+01 -1.61086e+01 -7.73539e+01
       E  4.14086e+01 -2.81641e+01  7.24201e+00
       E -3.31807e+00 -3.09443e+01 -5.47196e+00
3
# CELL(abcABC): 1322.94304  1322.94304  1322.94304    90.00000    90.00000    90.00000  Step:        6200  Bead:       3 positions{angstrom}  cell{angstrom}
       E  4.19804e+01 -2.66338e+01 -1.11452e+02
       E  6.08765e+01 -3.62348e+01 -2.94714e+00
       E  2.43399e+01 -1.09122e+01 -1.40001e+01
3
# CELL(abcABC): 1322.94304  1322.94304  1322.94304    90.00000    90.00000    90.00000  Step:        6300  Bead:       3 positions{angstrom}  cell{angstrom}
       E  2.15574e+01 -3.05860e+01 -9.48657e+01
       E  4.37352e+01 -5.06774e+01 -1.06944e+01
       E  1.04180e+01 -3.08467e+01  8.53554e+00
3
# CELL(abcABC): 1322.94304  1322.94304  1322.94304    90.00000    90.00000    90.00000  Step:        6400  Bead:       3 positions{angstrom}  cell{angstrom}
       E  2.62797e+01 -6.17406e+01 -1.12046e+02
       E  7.23604e+01 -5.19309e+01 -2.83705e+01
       E  3.63130e+01 -4.32960e+01  2.15126e+01
3
# CELL(abcABC): 1322.94304  1322.94304  1322.94304    90.00000    90.00000    90.00000  Step:        6500  Bead:       3 positions{angstrom}  cell{angstrom}
       E -2.72095e+01 -1.04833e+02 -1.13101e+02
       E  3.24134e+01 -1.96056e+01 -4.05194e+01
       E -5.55118e-01 -4.41944e+01  1.14594e+01
3
# CELL(abcABC): 1322.94304  1322.94304  1322.94304    90.00000    90.00000    90.00000  Step:        6600  Bead:       3 positions{angstrom}  cell{angstrom}
       E  3.72756e+00 -9.29606e+01 -1.33152e+02
       E -8.52748e-01  5.99232e-01 -2.98195e+01
       E  7.24548e+00 -3.59275e+01  5.70908e+01
3
# CELL(abcABC): 1322.94304  1322.94304  1322.94304    90.00000    90.00000    90.00000  Step:        6700  Bead:       3 positions{angstrom}  cell{angstrom}
       E  2.42269e+01 -8.63578e+01 -1.33759e+02
       E  3.39317e+01 -1.91225e+01 -2.39539e+01
       E -7.87804e+00 -1.57044e+01  1.39127e+01
3
# CELL(abcABC): 1322.94304  1322.94304  1322.94304    90.00000    90.00000    90.00000  Step:        6800  Bead:       3 positions{angstrom}  cell{angstrom}
       E  3.50091e+00 -6.54637e+01 -5.76283e+01
       E  3.32133e+01 -5.39363e+01 -4.29108e+01
       E -2.72051e+01  2.68047e+01  5.53965e+01
3
# CELL(abcABC): 1322.94304  1322.94304  1322.94304    90.00000    90.00000    90.00000  Step:        6900  Bead:       3 positions{angstrom}  cell{angstrom}
       E -2.97112e+01 -6.27032e+01 -7.26812e+01
       E  8.70972e+00  4.80666e+00 -1.84383e+01
       E -1.76030e+01  2.86621e+00  3.48598e+01
3
# CELL(abcABC): 1322.94304  1322.94304  1322.94304    90.00000    90.00000    90.00000  Step:        7000  Bead:       3 positions{angstrom}  cell{angstrom}
       E -5.04687e+01 -4.18456e+01 -6.19432e+01
       E -7.70319e-01  7.93049e+00 -4.14289e+01
       E  2.93455e+01  2.99057e+01  4.11094e+01
3
# CELL(abcABC): 1322.94304  1322.94304  1322.94304    90.00000    90.00000    90.00000  Step:        7100  Bead:       3 positions{angstrom}  cell{angstrom}
       E -8.01280e+00 -7.89307e+00 -3.73003e+01
       E -4.43708e+01  3.81897e+01  1.03492e+01
       E  3.83831e+00  1.58377e+01  3.80426e+01
3
# CELL(abcABC): 1322.94304  1322.94304  1322.94304    90.00000    90.00000    90.00000  Step:        7200  Bead:       3 positions{angstrom}  cell{angstrom}
       E -1.73938e+01 -2.28654e+01 -3.88642e+01
       E -3.98522e+01  4.77509e+01  4.73727e+01
       E  2.87645e+01  5.49819e+01  1.04487e+01
3
# CELL(abcABC): 1322.94304  1322.94304  1322.94304    90.00000    90.00000    90.00000  Step:        7300  Bead:       3 positions{angstrom}  cell{angstrom}
       E -1.77840e+00 -3.12781e+01 -6.72962e+01
       E -1.32929e+01  5.56500e+01  4.83204e+01
       E  5.23574e+01  2.03886e+01 -1.14542e+01
3
# CELL(abcABC): 1322.94304  1322.94304  1322.94304    90.00000    90.00000    90.00000  Step:        7400  Bead:       3 positions{angstrom}  cell{angstrom}
       E  1.83326e+01 -2.94461e+01 -3.26663e+01
       E -3.56479e+01  2.96463e+01  4.57088e+01
       E  7.34535e+01  3.42560e+01 -3.27759e+01
3
# CELL(abcABC): 1322.94304  1322.94304  1322.94304    90.00000    90.00000    90.00000  Step:        7500  Bead:       3 positions{angstrom}  cell{angstrom}
       E -3.35413e+01 -5.55424e+01 -3.16192e+01
       E -3.84711e+01  4.90910e+00  9.89661e+00
       E  8.28819e+01  4.47861e+01 -4.35665e+01
3
# CELL(abcABC): 1322.94304  1322.94304  1322.94304    90.00000    90.00000    90.00000  Step:        7600  Bead:       3 positions{angstrom}  cell{angstrom}
       E -4.25284e+01 -6.09903e+01 -2.35699e+01
       E -1.50227e+01 -3.06855e+01 -4.13101e+00
       E  8.00744e+01  6.51724e+01 -1.59195e+01
3
# CELL(abcABC): 1322.94304  1322.94304  1322.94304    90.00000    90.00000    90.00000  Step:        7700  Bead:       3 positions{angstrom}  cell{angstrom}
       E -1.03426e+01 -5.54756e+01 -3.23734e+01
       E -9.54363e+00 -5.18139e+01 -7.99294e+00
       E  7.20388e+01  3.11647e+00 -2.73401e+01
3
# CELL(abcABC): 1322.94304  1322.94304  1322.94304    90.00000    90.00000    90.00000  Step:        7800  Bead:       3 positions{angstrom}  cell{angstrom}
       E  2.55011e+01 -1.80437e+01 -4.70701e+01
       E  9.37236e+00 -5.21772e+01 -1.34540e+01
       E  3.66559e+01  3.79351e+01 -5.68868e+01
3
# CELL(abcABC): 1322.94304  1322.94304  1322.94304    90.00000    90.00000    90.00000  Step:        7900  Bead:       3 positions{angstrom}  cell{angstrom}
       E  3.51800e+01  1.14912e+01 -4.35650e+01
       E  4.29915e+01 -2.61056e+01 -2.40024e+01
       E  7.38504e+01  2.48240e+01 -4.90650e+01
3
# CELL(abcABC): 1322.94304  1322.94304  1322.94304    90.00000    90.00000    90.00000  Step:        8000  Bead:       3 positions{angstrom}  cell{angstrom}
       E  1.20803e+01  3.31957e+01 -1.45143e+01
       E  3.99488e+01 -4.15431e+01 -5.18354e+01
       E  4.27316e+01  3.44666e+01 -2.20393e+01
3
# CELL(abcABC): 1322.94304  1322.94304  1322.94304    90.00000    90.00000    90.00000  Step:        8100  Bead:       3 positions{angstrom}  cell{angstrom}
       E  2.09338e+01  2.54948e+01  6.27031e+00
       E -1.08712e+00 -2.03236e+01 -3.27984e+01
       E -5.47464e+00 -3.28415e+01 -9.56161e+00
3
# CELL(abcABC): 1322.94304  1322.94304  1322.94304    90.00000    90.00000    90.00000  Step:        8200  Bead:       3 positions{angstrom}  cell{angstrom}
       E  2.35814e+01  2.89480e+01 -4.87537e+01
       E  1.06240e+01  3.49117e+01 -1.47670e+01
       E  3.89227e+01 -2.79035e+01  1.61626e+01
3
# CELL(abcABC): 1322.94304  1322.94304  1322.94304    90.00000    90.00000    90.00000  Step:        8300  Bead:       3 positions{angstrom}  cell{angstrom}
       E  2.09333e+01 -7.27405e+00 -3.26030e+01
       E  3.48202e+01  1.32954e+00  2.58952e+01
       E  2.48779e+01 -3.02221e+01  1.01261e+01
3
# CELL(abcABC): 1322.94304  1322.94304  1322.94304    90.00000    90.00000    90.00000  Step:        8400  Bead:       3 positions{angstrom}  cell{angstrom}
       E  4.17224e+01  3.10151e+00  1.56174e+01
       E  1.30590e+01  1.79100e+01  3.92537e+01
       E  4.47340e+00  1.18151e+01  3.34807e+01
3
# CELL(abcABC): 1322.94304  1322.94304  1322.94304    90.00000    90.00000    90.00000  Step:        8500  Bead:       3 positions{angstrom}  cell{angstrom}
       E -1.27371e+01  1.02656e+01 -9.96035e-01
       E  6.57199e+01  3.16686e+01  1.88817e+01
       E  5.04725e+01 -1.45961e+01  1.21318e+01
3
# CELL(abcABC): 1322.94304  1322.94304  1322.94304    90.00000    90.00000    90.00000  Step:        8600  Bead:       3 positions{angstrom}  cell{angstrom}
       E -3.96707e+01 -2.22714e+00 -1.45487e+01
       E  4.90691e+01  8.91394e+00 -9.80964e-01
       E  6.30306e+01 -1.20200e+01  5.55448e+01
3
# CELL(abcABC): 1322.94304  1322.94304  1322.94304    90.00000    90.00000    90.00000  Step:        8700  Bead:       3 positions{angstrom}  cell{angstrom}
       E -2.15150e+01  3.60736e+01 -2.64858e+01
       E  2.79706e+01 -1.66901e+01  1.90719e+00
       E  3.86077e+01 -4.79642e+01  2.14281e+01
3
# CELL(abcABC): 1322.94304  1322.94304  1322.94304    90.00000    90.00000    90.00000  Step:        8800  Bead:       3 positions{angstrom}  cell{angstrom}
       E -2.73430e+00  5.14801e+01  1.42431e+01
       E -1.36260e+00 -6.00321e+00 -5.26256e+00
       E  6.49328e+01 -5.82639e+01  5.56813e+01
3
# CELL(abcABC): 1322.94304  1322.94304  1322.94304    90.00000    90.00000    90.00000  Step:        8900  Bead:       3 positions{angstrom}  cell{angstrom}
       E -1.00342e+01  3.06375e+01  1.63869e+00
       E -3.06548e+01 -1.79813e+01  2.65012e+01
       E  3.32637e+01 -6.27222e+01  6.99003e+00
3
# CELL(abcABC): 1322.94304  1322.94304  1322.94304    90.00000    90.00000    90.00000  Step:        9000  Bead:       3 positions{angstrom}  cell{angstrom}
       E -1.02602e+01  3.12394e+01  5.86479e+00
       E -3.84315e+01 -3.54152e+01  2.35413e+01
       E  5.76438e+00 -8.21827e+01 -5.12752e+00
3
# CELL(abcABC): 1322.94304  1322.94304  1322.94304    90.00000    90.00000    90.00000  Step:        9100  Bead:       3 positions{angstrom}  cell{angstrom}
       E  9.92176e+00  4.42404e+01  2.11842e+01
       E -6.00923e+01  1.64754e+00  3.29752e+01
       E  7.54553e-01 -6.77031e+01 -2.20904e+01
3
# CELL(abcABC): 1322.94304  1322.94304  1322.94304    90.00000    90.00000    90.00000  Step:        9200  Bead:       3 positions{angstrom}  cell{angstrom}
       E -1.70563e+01  2.63837e+01  3.31804e+00
       E  9.14575e+00 -2.89513e+00  4.08365e+01
       E  1.49914e+01 -2.08269e+01 -7.91545e+00
3
# CELL(abcABC): 1322.94304  1322.94304  1322.94304    90.00000    90.00000    90.00000  Step:        9300  Bead:       3 positions{angstrom}  cell{angstrom}
       E  1.42176e+01  4.70439e+01 -5.33000e+01
       E  4.61461e+00 -4.26406e+01  1.83315e+01
       E  4.19960e+01 -3.02303e+01  6.90211e+00
3
# CELL(abcABC): 1322.94304  1322.94304  1322.94304    90.00000    90.00000    90.00000  Step:        9400  Bead:       3 positions{angstrom}  cell{angstrom}
       E  2.38232e+01  5.34144e+01 -2.48940e+01
       E  4.69662e+01 -2.98404e+01  6.55216e+00
       E  3.05819e+01 -1.43680e+01  9.92148e+00
3
# CELL(abcABC): 1322.94304  1322.94304  1322.94304    90.00000    90.00000    90.00000  Step:        9500  Bead:       3 positions{angstrom}  cell{angstrom}
       E  1.87642e+01  3.25198e+00 -2.63806e+01
       E  5.16359e+01  1.51366e+01  1.00237e+01
       E -1.17585e+01 -1.01040e+01  2.24254e+01
3
# CELL(abcABC): 1322.94304  1322.94304  1322.94304    90.00000    90.00000    90.00000  Step:        9600  Bead:       3 positions{angstrom}  cell{angstrom}
       E -9.86147e+00  5.68046e-01 -4.04634e+01
       E  3.20948e+01 -3.76212e+01  3.41332e+01
       E -1.70073e+01 -3.49485e+01 -2.22111e+00
3
# CELL(abcABC): 1322.94304  1322.94304  1322.94304    90.00000    90.00000    90.00000  Step:        9700  Bead:       3 positions{angstrom}  cell{angstrom}
       E -6.50931e+01 -2.90772e-02 -7.70014e+01
       E  2.06246e+01 -6.54531e+01  1.34232e+01
       E -2.81265e+01 -2.80587e+01 -8.52021e+00
3
# CELL(abcABC): 1322.94304  1322.94304  1322.94304    90.00000    90.00000    90.00000  Step:        9800  Bead:       3 positions{angstrom}  cell{angstrom}
       E -4.33214e+01 -4.61292e+01 -4.10098e+01
       E  3.95463e+01 -9.07071e+01 -1.08492e+01
       E  5.83181e+00 -1.96048e+01  3.36382e+01
3