3
# CELL(abcABC): 1322.94304  1322.94304  1322.94304    90.00000    90.00000    90.00000  Step:           0  Bead:      28 positions{angstrom}  cell{angstrom}
       E  0.00000e+00  0.00000e+00  0.00000e+00
       E  0.00000e+00  0.00000e+00  0.00000e+00
       E  0.00000e+00  0.00000e+00  0.00000e+00
3
# CELL(abcABC): 1322.94304  1322.94304  1322.94304    90.00000    90.00000    90.00000  Step:         100  Bead:      28 positions{angstrom}  cell{angstrom}
       E -2.13407e+00 -2.31612e+01  7.61308e+00
       E  1.48779e+01 -1.82324e+01  4.46101e+00
       E  1.42955e+01  1.20023e+01 -1.53765e+01
3
# CELL(abcABC): 1322.94304  1322.94304  1322.94304    90.00000    90.00000    90.00000  Step:         200  Bead:      28 positions{angstrom}  cell{angstrom}
       E -1.88305e+00  2.38420e+00  3.18067e+01
       E  1.41574e+01 -9.68240e+00 -1.79095e-01
       E  3.56108e+01 -3.53792e+00  2.55558e+01
3
# CELL(abcABC): 1322.94304  1322.94304  1322.94304    90.00000    90.00000    90.00000  Step:         300  Bead:      28 positions{angstrom}  cell{angstrom}
       E  1.94582e+01 -4.48866e+00  1.11518e+01
       E  2.05040e+01 -3.54641e+01  2.26512e+01
       E  1.21083e+01  2.51897e+01  1.53024e+01
3
# CELL(abcABC): 1322.94304  1322.94304  1322.94304    90.00000    90.00000    90.00000  Step:         400  Bead:      28 positions{angstrom}  cell{angstrom}
       E  2.85349e+01 -6.00089e+00 -3.00067e+01
       E  2.31840e+00 -1.67643e+01  1.15532e+01
       E  1.07181e+01  5.83596e+00  7.08285e+00
3
# CELL(abcABC): 1322.94304  1322.94304  1322.94304    90.00000    90.00000    90.00000  Step:         500  Bead:      28 positions{angstrom}  cell{angstrom}
       E  2.54418e+01  1.78635e+00 -4.32208e+01
       E  2.49693e+01  7.41671e+00  1.24893e+01
       E  1.85728e+01 -1.14664e+01  2.54734e+01
3
# CELL(abcABC): 1322.94304  1322.94304  1322.94304    90.00000    90.00000    90.00000  Step:         600  Bead:      28 positions{angstrom}  cell{angstrom}
       E  5.10927e+01 -1.97653e+01  6.45892e+00
       E -2.32497e+00 -2.78290e+01  7.03978e+01
       E  1.47000e+01  1.48112e+01  4.07972e+01
3
# CELL(abcABC): 1322.94304  1322.94304  1322.94304    90.00000    90.00000    90.00000  Step:         700  Bead:      28 positions{angstrom}  cell{angstrom}
       E  3.08725e+01  2.27663e+00 -4.04859e+01
       E -3.88390e+01  2.20937e+00  3.19021e+01
       E -1.29673e+01  5.05861e+01  6.74474e+01
3
# CELL(abcABC): 1322.94304  1322.94304  1322.94304    90.00000    90.00000    90.00000  Step:         800  Bead:      28 positions{angstrom}  cell{angstrom}
       E  6.37904e+01  2.65202e+01 -3.09776e+01
       E -1.46744e+01 -2.73326e+01  5.84786e+01
       E -5.58340e+01  1.66525e+01  7.03290e+01
3
# CELL(abcABC): 1322.94304  1322.94304  1322.94304    90.00000    90.00000    90.00000  Step:         900  Bead:      28 positions{angstrom}  cell{angstrom}
       E  4.35048e+01 -4.67792e+00 -3.69676e+01
       E  4.22921e+00  3.55317e+01  1.91019e+01
       E -5.51748e+01  2.03220e+01  1.21851e+02
3
# CELL(abcABC): 1322.94304  1322.94304  1322.94304    90.00000    90.00000    90.00000  Step:        1000  Bead:      28 positions{angstrom}  cell{angstrom}
       E  3.23830e+01  1.60129e+01 -3.27054e+01
       E  1.01786e+01  1.83012e+01 -2.85677e+01
       E -9.94469e+00  1.47195e+01  8.88563e+01
3
# CELL(abcABC): 1322.94304  1322.94304  1322.94304    90.00000    90.00000    90.00000  Step:        1100  Bead:      28 positions{angstrom}  cell{angstrom}
       E  2.06494e+01  1.46275e+01 -1.44543e+01
       E -6.79530e+00  1.04326e+01 -5.23325e+01
       E  2.22218e+01  2.12836e-01  5.20175e+01
3
# CELL(abcABC): 1322.94304  1322.94304  1322.94304    90.00000    90.00000    90.00000  Step:        1200  Bead:      28 positions{angstrom}  cell{angstrom}
       E -1.96873e+01  6.71579e+00 -1.09011e+01
       E  2.57288e+01  1.38125e+01 -5.57716e+01
       E -3.07042e+00  6.45316e+01  4.69966e+01
3
# CELL(abcABC): 1322.94304  1322.94304  1322.94304    90.00000    90.00000    90.00000  Step:        1300  Bead:      28 positions{angstrom}  cell{angstrom}
       E  8.19652e+00  3.11313e+01 -4.18558e+01
       E  1.59583e+01 -6.83451e-01 -7.00879e+01
       E -1.52187e+01  7.33755e+01  2.60146e+01
3
# CELL(abcABC): 1322.94304  1322.94304  1322.94304    90.00000    90.00000    90.00000  Step:        1400  Bead:      28 positions{angstrom}  cell{angstrom}
       E -7.25649e+00  4.41753e+01 -5.94885e+01
       E  4.18446e+00 -3.40661e+01 -9.28437e+01
       E -6.12507e+00  3.63688e+01  3.09207e+01
3
# CELL(abcABC): 1322.94304  1322.94304  1322.94304    90.00000    90.00000    90.00000  Step:        1500  Bead:      28 positions{angstrom}  cell{angstrom}
       E -4.82991e+01  5.76967e+01 -6.85299e+01
       E -1.13440e+01  3.91611e+00 -4.08412e+01
       E  1.50648e+01  3.70088e+01  3.58812e+01
3
# CELL(abcABC): 1322.94304  1322.94304  1322.94304    90.00000    90.00000    90.00000  Step:        1600  Bead:      28 positions{angstrom}  cell{angstrom}
       E -1.79657e+01  5.78614e+01 -9.59158e+01
       E -4.10585e+00  5.66515e+00  3.02109e+00
       E -1.34012e+01  2.25570e+01  2.23256e+01
3
# CELL(abcABC): 1322.94304  1322.94304  1322.94304    90.00000    90.00000    90.00000  Step:        1700  Bead:      28 positions{angstrom}  cell{angstrom}
       E -4.82859e+01  3.61404e+01 -2.50980e+01
       E -3.39537e+01 -1.70347e+01  1.47831e+01
       E -2.55262e+01  3.45548e+01  1.11947e+01
3
# CELL(abcABC): 1322.94304  1322.94304  1322.94304    90.00000    90.00000    90.00000  Step:        1800  Bead:      28 positions{angstrom}  cell{angstrom}
       E -2.74937e+01  2.11960e+01  2.87566e+01
       E -6.89001e+01  1.13972e+01 -1.40665e+01
       E -4.82653e+01  3.90912e+01 -2.06092e+01
3
# CELL(abcABC): 1322.94304  1322.94304  1322.94304    90.00000    90.00000    90.00000  Step:        1900  Bead:      28 positions{angstrom}  cell{angstrom}
       E -4.33117e+01  3.56114e+01  8.16806e+00
       E -5.25171e+01  6.44591e+00 -6.78691e+00
       E -5.58330e+01  3.26109e+01  3.05052e+01
3
# CELL(abcABC): 1322.94304  1322.94304  1322.94304    90.00000    90.00000    90.00000  Step:        2000  Bead:      28 positions{angstrom}  cell{angstrom}
       E -1.81956e+01 -2.65899e+01  4.41582e+01
       E -3.39848e+01 -2.26138e+00 -1.43858e+00
       E -8.51498e+01  8.10178e+01  1.18008e+00
3
# CELL(abcABC): 1322.94304  1322.94304  1322.94304    90.00000    90.00000    90.00000  Step:        2100  Bead:      28 positions{angstrom}  cell{angstrom}
       E  4.60897e+00 -7.29717e+01  1.01033e+01
       E -2.65775e+01 -1.30500e+01  1.98379e+01
       E -5.49321e+01  8.36580e+01 -3.69296e+01
3
# CELL(abcABC): 1322.94304  1322.94304  1322.94304    90.00000    90.00000    90.00000  Step:        2200  Bead:      28 positions{angstrom}  cell{angstrom}
       E -1.75072e+01 -6.13391e+01 -1.71629e+01
       E -2.94582e+01  2.38765e+01  1.34837e+01
       E -5.54922e+01  6.04955e+01 -1.15484e+01
3
# CELL(abcABC): 1322.94304  1322.94304  1322.94304    90.00000    90.00000    90.00000  Step:        2300  Bead:      28 positions{angstrom}  cell{angstrom}
       E  2.45162e+00 -6.32816e+01  4.53644e+00
       E -1.68004e+01  9.86770e+00  2.96593e+00
       E -5.90728e+01  4.41732e+01 -3.16605e+01
3
# CELL(abcABC): 1322.94304  1322.94304  1322.94304    90.00000    90.00000    90.00000  Step:        2400  Bead:      28 positions{angstrom}  cell{angstrom}
       E -3.15617e+01 -3.61170e+01  1.08066e+01
       E -3.15819e+01  8.64772e+00 -1.18118e+01
       E -1.82363e+01  2.91461e+01 -2.04321e+01
3
# CELL(abcABC): 1322.94304  1322.94304  1322.94304    90.00000    90.00000    90.00000  Step:        2500  Bead:      28 positions{angstrom}  cell{angstrom}
       E -2.26532e+01 -5.02245e+01  1.49653e+01
       E -4.66833e+01 -5.48733e+01 -3.09110e+01
       E  1.80079e+01 -1.12641e+00  6.41638e+01
3
# CELL(abcABC): 1322.94304  1322.94304  1322.94304    90.00000    90.00000    90.00000  Step:        2600  Bead:      28 positions{angstrom}  cell{angstrom}
       E -4.71698e+01 -1.58352e+00  5.28683e+01
       E -3.27188e+01 -4.91718e+01 -1.36344e+01
       E  7.17872e+00 -3.34278e+00  7.21267e+01
3
# CELL(abcABC): 1322.94304  1322.94304  1322.94304    90.00000    90.00000    90.00000  Step:        2700  Bead:      28 positions{angstrom}  cell{angstrom}
       E -3.09404e+01 -7.92284e+01  1.14932e+02
       E -6.94440e+01 -4.90694e+01 -1.19298e+01
       E  1.21577e+01 -3.37745e+01  7.17182e+01
3
# CELL(abcABC): 1322.94304  1322.94304  1322.94304    90.00000    90.00000    90.00000  Step:        2800  Bead:      28 positions{angstrom}  cell{angstrom}
       E -4.31479e+01 -4.17114e+01  6.64164e+01
       E -4.52662e+01 -2.51352e+01 -9.31667e-01
       E  2.18835e+01 -2.10949e+01  3.53091e+01
3
# CELL(abcABC): 1322.94304  1322.94304  1322.94304    90.00000    90.00000    90.00000  Step:        2900  Bead:      28 positions{angstrom}  cell{angstrom}
       E -4.73906e+01 -7.31849e+01  4.94949e+01
       E -4.23131e+01 -3.52055e+01  1.06401e+01
       E  3.10599e+01 -5.17697e+01  5.77060e+01
3
# CELL(abcABC): 1322.94304  1322.94304  1322.94304    90.00000    90.00000    90.00000  Step:        3000  Bead:      28 positions{angstrom}  cell{angstrom}
       E -8.36640e+01 -5.85064e+01  2.15841e+01
       E -5.20855e+01 -4.31692e+01  2.89902e+01
       E  5.17720e+01  1.07700e+00  1.70805e+01
3
# CELL(abcABC): 1322.94304  1322.94304  1322.94304    90.00000    90.00000    90.00000  Step:        3100  Bead:      28 positions{angstrom}  cell{angstrom}
       E -8.38975e+01 -7.39209e+01  2.19206e+00
       E -5.30983e+01 -6.76177e+01  6.26546e+01
       E  5.73427e+01  3.65672e+01  1.61643e+01
3
# CELL(abcABC): 1322.94304  1322.94304  1322.94304    90.00000    90.00000    90.00000  Step:        3200  Bead:      28 positions{angstrom}  cell{angstrom}
       E -9.56136e+01 -7.44467e+01  3.08787e+01
       E -5.92917e+01 -2.55484e+01  4.56107e+01
       E  4.82959e+01  5.05153e+01  1.49406e+01
3
# CELL(abcABC): 1322.94304  1322.94304  1322.94304    90.00000    90.00000    90.00000  Step:        3300  Bead:      28 positions{angstrom}  cell{angstrom}
       E -9.85765e+01  2.31975e+01  5.95279e+01
       E -1.02805e+02 -5.27538e+00  5.85489e+01
       E  6.55071e+01  9.62224e+01  2.65961e+01
3
# CELL(abcABC): 1322.94304  1322.94304  1322.94304    90.00000    90.00000    90.00000  Step:        3400  Bead:      28 positions{angstrom}  cell{angstrom}
       E -1.17419e+02  2.71462e+01  8.94161e+01
       E -6.57079e+01 -4.42783e+01  3.79145e+01
       E  3.72481e+01  7.20257e+01  3.68502e+01
3
# CELL(abcABC): 1322.94304  1322.94304  1322.94304    90.00000    90.00000    90.00000  Step:        3500  Bead:      28 positions{angstrom}  cell{angstrom}
       E -9.71242e+01 -1.66394e+01  7.01073e+01
       E -5.98936e+01 -5.93244e+01  5.15052e+01
       E  2.03940e+01  6.13104e+01  2.61059e+01
3
# CELL(abcABC): 1322.94304  1322.94304  1322.94304    90.00000    90.00000    90.00000  Step:        3600  Bead:      28 positions{angstrom}  cell{angstrom}
       E -9.10831e+01 -6.55167e+01  2.64064e+01
       E -1.42783e+01 -3.08399e+01  5.98281e+01
       E -5.45087e+01  2.10074e+01  6.74346e+00
3
# CELL(abcABC): 1322.94304  1322.94304  1322.94304    90.00000    90.00000    90.00000  Step:        3700  Bead:      28 positions{angstrom}  cell{angstrom}
       E -8.01141e+01 -4.82236e+01  1.09725e+01
       E -4.07146e+00 -4.12767e+01  2.96833e+00
       E -8.76299e+01 -1.88177e+01  2.09596e+01
3
# CELL(abcABC): 1322.94304  1322.94304  1322.94304    90.00000    90.00000    90.00000  Step:        3800  Bead:      28 positions{angstrom}  cell{angstrom}
       E -6.39202e+01 -1.12436e+01  2.16584e+01
       E  1.90769e+01 -5.19735e+01  4.09658e+00
       E -6.62189e+00 -3.28791e+01  1.17530e+01
3
# CELL(abcABC): 1322.94304  1322.94304  1322.94304    90.00000    90.00000    90.00000  Step:        3900  Bead:      28 positions{angstrom}  cell{angstrom}
       E -7.86944e+01 -1.81493e+01 -2.21086e+01
       E -3.87561e+01 -4.26850e+01 -4.82686e+00
       E  4.11168e+00 -2.11422e+01  4.32484e+01
3
# CELL(abcABC): 1322.94304  1322.94304  1322.94304    90.00000    90.00000    90.00000  Step:        4000  Bead:      28 positions{angstrom}  cell{angstrom}
       E -9.49302e+01 -1.28496e+01 -7.02650e+00
       E -2.56991e+01 -2.13758e+01  6.34450e+00
       E  2.82255e-01 -3.51314e+01 -3.65727e+00
3
# CELL(abcABC): 1322.94304  1322.94304  1322.94304    90.00000    90.00000    90.00000  Step:        4100  Bead:      28 positions{angstrom}  cell{angstrom}
       E -9.42351e+01  2.81411e-01 -7.29032e+01
       E -6.97602e+01  3.20693e+00  3.43529e+00
       E -2.27868e+01 -4.06327e+01  1.21260e+01
3
# CELL(abcABC): 1322.94304  1322.94304  1322.94304    90.00000    90.00000    90.00000  Step:        4200  Bead:      28 positions{angstrom}  cell{angstrom}
       E -8.25385e+01  2.71147e+01 -8.87679e+01
       E -4.20021e+01  1.48026e+01 -3.02853e+01
       E -1.65218e+01 -3.62458e+01 -4.35093e+00
3
# CELL(abcABC): 1322.94304  1322.94304  1322.94304    90.00000    90.00000    90.00000  Step:        4300  Bead:      28 positions{angstrom}  cell{angstrom}
       E -5.37999e+01  7.43861e+00 -8.73897e+01
       E -2.42786e+01  4.85332e+01 -2.71896e+01
       E  2.74717e+01 -1.84529e+01 -2.14151e+01
3
# CELL(abcABC): 1322.94304  1322.94304  1322.94304    90.00000    90.00000    90.00000  Step:        4400  Bead:      28 positions{angstrom}  cell{angstrom}
       E -1.31428e+01  2.65387e+01 -7.84950e+01
       E -6.08734e+01  5.26072e+01 -4.80813e+00
       E  2.04316e+01 -2.89156e+01  2.71482e+01
3
# CELL(abcABC): 1322.94304  1322.94304  1322.94304    90.00000    90.00000    90.00000  Step:        4500  Bead:      28 positions{angstrom}  cell{angstrom}
       E -6.42475e+01  1.88844e+01 -9.15948e+01
       E -6.25357e+01  4.35766e+01  1.19726e+01
       E  2.46475e+01 -6.75492e+01  7.55807e+00
3
# CELL(abcABC): 1322.94304  1322.94304  1322.94304    90.00000    90.00000    90.00000  Step:        4600  Bead:      28 positions{angstrom}  cell{angstrom}
       E -5.74547e+01  2.51687e+01 -4.72961e+01
       E -6.10335e+01  7.81781e+01  1.33311e+01
       E  6.79046e+00 -3.00627e+01  2.65132e+01
3
# CELL(abcABC): 1322.94304  1322.94304  1322.94304    90.00000    90.00000    90.00000  Step:        4700  Bead:      28 positions{angstrom}  cell{angstrom}
       E -4.22422e+01  2.53740e+01 -7.30736e+01
       E -3.87415e+01  2.62716e+01 -8.13552e+00
       E  8.51669e-01 -6.69069e+01  1.62985e+01
3
# CELL(abcABC): 1322.94304  1322.94304  1322.94304    90.00000    90.00000    90.00000  Step:        4800  Bead:      28 positions{angstrom}  cell{angstrom}
       E -1.22371e+01  6.86757e+01 -1.05901e+02
       E -4.70299e+01 -1.30455e+00 -2.00974e+01
       E -1.79432e+01 -5.44898e+01  2.79142e+01
3
# CELL(abcABC): 1322.94304  1322.94304  1322.94304    90.00000    90.00000    90.00000  Step:        4900  Bead:      28 positions{angstrom}  cell{angstrom}
       E  2.03331e+01  5.71011e+01 -4.85033e+01
       E -6.00177e+01 -7.95214e-01 -5.43496e+01
       E  2.38701e+01 -7.11316e+01  7.92516e+00
3
# CELL(abcABC): 1322.94304  1322.94304  1322.94304    90.00000    90.00000    90.00000  Step:        5000  Bead:      28 positions{angstrom}  cell{angstrom}
       E  7.66917e+01  4.27341e+01 -3.89224e+01
       E -5.83404e+01 -1.34988e+01 -2.44090e+01
       E  1.93141e+01 -4.89828e+01 -2.48964e+01
3
# CELL(abcABC): 1322.94304  1322.94304  1322.94304    90.00000    90.00000    90.00000  Step:        5100  Bead:      28 positions{angstrom}  cell{angstrom}
       E  7.05713e+01  5.43071e+01  1.20926e+01
       E -4.68389e+01  4.05274e+00 -3.02425e+00
       E  2.19763e+01 -1.51437e+01 -4.11832e+00
3
# CELL(abcABC): 1322.94304  1322.94304  1322.94304    90.00000    90.00000    90.00000  Step:        5200  Bead:      28 positions{angstrom}  cell{angstrom}
       E  2.12157e+01 -4.91513e+00 -1.09066e+00
       E -4.93531e+01  2.43959e+01 -1.07913e+01
       E -1.75354e+00  7.61553e+00 -4.03521e+01
3
# CELL(abcABC): 1322.94304  1322.94304  1322.94304    90.00000    90.00000    90.00000  Step:        5300  Bead:      28 positions{angstrom}  cell{angstrom}
       E  5.44080e+01 -2.63240e+01 -2.17369e+01
       E -4.10507e+01  1.19702e+01 -2.25803e+01
       E -3.54474e+01  3.30771e+01  4.57757e+01
3
# CELL(abcABC): 1322.94304  1322.94304  1322.94304    90.00000    90.00000    90.00000  Step:        5400  Bead:      28 positions{angstrom}  cell{angstrom}
       E  2.91701e+01 -1.32356e+01  2.22300e+00
       E -4.56643e+01  3.05983e+01 -2.70661e+01
       E -1.57551e+01  4.45659e+01  2.43383e+01
3
# CELL(abcABC): 1322.94304  1322.94304  1322.94304    90.00000    90.00000    90.00000  Step:        5500  Bead:      28 positions{angstrom}  cell{angstrom}
       E  3.35153e+01  1.80256e+01  1.65661e+01
       E -4.01616e-03 -2.46814e+00 -2.43237e+00
       E -1.68766e+01  6.66075e+01 -3.52924e+01
3
# CELL(abcABC): 1322.94304  1322.94304  1322.94304    90.00000    90.00000    90.00000  Step:        5600  Bead:      28 positions{angstrom}  cell{angstrom}
       E  4.81484e+01  1.24730e+01 -2.56280e+01
       E -2.44741e+01  2.51242e-01 -4.28575e+00
       E -2.57550e+01 -1.96942e-01 -2.31363e+00
3
# CELL(abcABC): 1322.94304  1322.94304  1322.94304    90.00000    90.00000    90.00000  Step:        5700  Bead:      28 positions{angstrom}  cell{angstrom}
       E  3.08299e+01  1.81557e+01 -3.46360e+01
       E  9.35273e+00  2.64297e+01 -3.67519e+00
       E -4.49546e+01 -8.04262e+00  4.31272e+01
3
# CELL(abcABC): 1322.94304  1322.94304  1322.94304    90.00000    90.00000    90.00000  Step:        5800  Bead:      28 positions{angstrom}  cell{angstrom}
       E  2.20624e+01 -1.97868e+00 -4.09423e+01
       E -2.26727e+00 -8.11173e-02 -2.78331e+01
       E -9.79643e+00 -5.24720e+01 -1.55253e+01
3
# CELL(abcABC): 1322.94304  1322.94304  1322.94304    90.00000    90.00000    90.00000  Step:        5900  Bead:      28 positions{angstrom}  cell{angstrom}
       E  1.40123e+00  1.02374e+01 -4.64882e+00
       E  1.42604e+00  4.49801e+01 -2.74295e+01
       E -1.32840e+01 -5.24588e+01  1.70119e+01
3
# CELL(abcABC): 1322.94304  1322.94304  1322.94304    90.00000    90.00000    90.00000  Step:        6000  Bead:      28 positions{angstrom}  cell{angstrom}
       E  1.51761e+01 -2.15295e+01 -1.46728e+01
       E -3.73286e+00  1.48754e+01 -4.39134e+01
       E  4.02016e+00 -4.35801e+01 -1.16553e+01
3
# CELL(abcABC): 1322.94304  1322.94304  1322.94304    90.00000    90.00000    90.00000  Step:        6100  Bead:      28 positions{angstrom}  cell{angstrom}
       E  1.41124e+01 -6.03675e+01 -3.61740e+01
       E  2.90226e+01 -3.79601e+01 -5.52366e+01
       E  2.61507e+01 -3.47876e+01  9.97988e+00
3
# CELL(abcABC): 1322.94304  1322.94304  1322.94304    90.00000    90.00000    90.00000  Step:        6200  Bead:      28 positions{angstrom}  cell{angstrom}
       E  2.47696e+01 -5.80009e+01 -6.58681e+01
       E  4.80857e+01 -7.16626e+00 -1.51499e+01
       E -1.88270e+01 -5.54815e+01  3.40713e+01
3
# CELL(abcABC): 1322.94304  1322.94304  1322.94304    90.00000    90.00000    90.00000  Step:        6300  Bead:      28 positions{angstrom}  cell{angstrom}
       E  3.15055e+01 -7.37309e+01 -1.11062e+02
       E  7.13280e+01 -2.15573e+01 -5.98610e+00
       E -1.41210e+01 -5.71777e+01  1.39939e+01
3
# CELL(abcABC): 1322.94304  1322.94304  1322.94304    90.00000    90.00000    90.00000  Step:        6400  Bead:      28 positions{angstrom}  cell{angstrom}
       E  4.55225e+01 -8.58692e+01 -1.28981e+02
       E  3.54590e+01 -4.64873e+01 -3.23308e+01
       E  2.98091e-01 -2.78467e+01  3.52315e+01
3
# CELL(abcABC): 1322.94304  1322.94304  1322.94304    90.00000    90.00000    90.00000  Step:        6500  Bead:      28 positions{angstrom}  cell{angstrom}
       E  3.91582e+01 -1.11544e+02 -1.25337e+02
       E  4.69606e+00  2.15478e+01 -4.17355e+01
       E -1.70637e+01  1.40578e+01 -9.29538e+00
3
# CELL(abcABC): 1322.94304  1322.94304  1322.94304    90.00000    90.00000    90.00000  Step:        6600  Bead:      28 positions{angstrom}  cell{angstrom}
       E  2.59282e+01 -1.08958e+02 -1.21749e+02
       E  2.42932e+01 -6.86873e+00 -3.39950e+01
       E -6.08080e+00 -2.13689e+01  1.37562e+01
3
# CELL(abcABC): 1322.94304  1322.94304  1322.94304    90.00000    90.00000    90.00000  Step:        6700  Bead:      28 positions{angstrom}  cell{angstrom}
       E  4.84391e+01 -9.36269e+01 -1.19489e+02
       E  4.59855e+01  2.42126e+00 -3.91151e+01
       E -3.04355e+01 -2.27735e+01  1.45670e+01
3
# CELL(abcABC): 1322.94304  1322.94304  1322.94304    90.00000    90.00000    90.00000  Step:        6800  Bead:      28 positions{angstrom}  cell{angstrom}
       E  3.51028e+01 -1.13093e+02 -1.05801e+02
       E  2.11234e+01 -2.11357e+00 -1.93834e+01
       E -1.28228e+01 -4.33565e+01  4.55089e+01
3
# CELL(abcABC): 1322.94304  1322.94304  1322.94304    90.00000    90.00000    90.00000  Step:        6900  Bead:      28 positions{angstrom}  cell{angstrom}
       E  2.14279e+01 -9.64091e+01 -4.90385e+01
       E  2.84102e+01 -2.81835e+01 -2.37543e+01
       E  1.18413e+01 -1.63467e+01  2.02508e+01
3
# CELL(abcABC): 1322.94304  1322.94304  1322.94304    90.00000    90.00000    90.00000  Step:        7000  Bead:      28 positions{angstrom}  cell{angstrom}
       E  4.27216e+01 -4.86290e+01 -4.67369e+01
       E  3.49009e+01  3.49363e+01 -3.05797e+01
       E -2.77927e+00  8.17606e-01  5.94426e+00
3
# CELL(abcABC): 1322.94304  1322.94304  1322.94304    90.00000    90.00000    90.00000  Step:        7100  Bead:      28 positions{angstrom}  cell{angstrom}
       E -2.62126e+01 -1.26580e+01 -3.98308e+01
       E  1.23624e+01  8.01993e+01  1.86226e+01
       E  4.82673e+01 -2.90262e+00 -1.71794e+01
3
# CELL(abcABC): 1322.94304  1322.94304  1322.94304    90.00000    90.00000    90.00000  Step:        7200  Bead:      28 positions{angstrom}  cell{angstrom}
       E -2.13621e+01 -1.62336e+01 -6.54309e+01
       E -1.17533e+01  1.97473e+01  1.90209e+01
       E  2.26296e+01  3.63550e+01 -1.45789e+01
3
# CELL(abcABC): 1322.94304  1322.94304  1322.94304    90.00000    90.00000    90.00000  Step:        7300  Bead:      28 positions{angstrom}  cell{angstrom}
       E  3.40202e+01 -3.12739e+00 -5.53032e+01
       E -5.02691e+01  6.99000e+00  1.50792e+00
       E  2.98458e+01  5.14126e+01 -1.37592e+01
3
# CELL(abcABC): 1322.94304  1322.94304  1322.94304    90.00000    90.00000    90.00000  Step:        7400  Bead:      28 positions{angstrom}  cell{angstrom}
       E -2.50207e-02 -7.20589e+00 -3.95208e+01
       E -1.41243e+01  5.63854e+00 -1.06992e+01
       E  7.26863e+01  3.24750e+01 -1.97492e+01
3
# CELL(abcABC): 1322.94304  1322.94304  1322.94304    90.00000    90.00000    90.00000  Step:        7500  Bead:      28 positions{angstrom}  cell{angstrom}
       E -1.18598e+01 -4.88057e+01 -2.20421e+01
       E -4.93741e-01 -7.88206e+00  2.10632e+01
       E  4.07818e+01  5.42846e+01 -3.20603e+00
3
# CELL(abcABC): 1322.94304  1322.94304  1322.94304    90.00000    90.00000    90.00000  Step:        7600  Bead:      28 positions{angstrom}  cell{angstrom}
       E -8.31915e+00 -6.11030e+01 -4.47041e+01
       E -7.04471e+01 -1.87549e+01  2.02884e+01
       E  4.72885e+01  5.10727e+01 -3.77258e+01
3
# CELL(abcABC): 1322.94304  1322.94304  1322.94304    90.00000    90.00000    90.00000  Step:        7700  Bead:      28 positions{angstrom}  cell{angstrom}
       E -3.41420e+00 -5.66528e+01 -7.00204e+01
       E  1.87259e+00 -5.30363e+01 -3.97008e+00
       E  5.91996e+01  2.99019e+01 -4.09860e+01
3
# CELL(abcABC): 1322.94304  1322.94304  1322.94304    90.00000    90.00000    90.00000  Step:        7800  Bead:      28 positions{angstrom}  cell{angstrom}
       E -5.80384e+00 -5.96973e+01 -2.33700e+01
       E  2.20581e+01 -5.59239e+01 -4.47248e+01
       E  6.95291e+01  4.73576e-01 -2.93877e+01
3
# CELL(abcABC): 1322.94304  1322.94304  1322.94304    90.00000    90.00000    90.00000  Step:        7900  Bead:      28 positions{angstrom}  cell{angstrom}
       E  1.43768e+01 -1.05229e+01 -2.38168e+01
       E  1.55662e+01 -4.94255e+01 -4.02665e+01
       E  7.14118e+01  2.59349e+01 -6.91731e+01
3
# CELL(abcABC): 1322.94304  1322.94304  1322.94304    90.00000    90.00000    90.00000  Step:        8000  Bead:      28 positions{angstrom}  cell{angstrom}
       E  2.57696e+01  8.72544e+00 -4.81629e+01
       E -1.34006e-01 -3.03869e+01 -9.59282e+01
       E  5.15171e+01 -2.26228e+00 -9.83102e+00
3
# CELL(abcABC): 1322.94304  1322.94304  1322.94304    90.00000    90.00000    90.00000  Step:        8100  Bead:      28 positions{angstrom}  cell{angstrom}
       E  1.92638e+01  4.28766e+01 -2.20480e+01
       E -2.76924e+01 -6.72605e+00 -6.01127e+01
       E  2.03240e+01 -1.96252e+01  1.61547e-01
3
# CELL(abcABC): 1322.94304  1322.94304  1322.94304    90.00000    90.00000    90.00000  Step:        8200  Bead:      28 positions{angstrom}  cell{angstrom}
       E  2.04622e+01  6.10408e+01  4.80770e+01
       E  1.36593e+01  4.03189e+01 -1.25612e+01
       E -2.27840e+01  1.10842e+01  8.83934e-01
3
# CELL(abcABC): 1322.94304  1322.94304  1322.94304    90.00000    90.00000    90.00000  Step:        8300  Bead:      28 positions{angstrom}  cell{angstrom}
       E  3.61630e+01  6.80329e+01 -1.25736e+01
       E  1.31500e+01  6.75677e+00 -1.31769e+01
       E  2.06148e+01 -4.23880e+01  1.03030e+01
3
# CELL(abcABC): 1322.94304  1322.94304  1322.94304    90.00000    90.00000    90.00000  Step:        8400  Bead:      28 positions{angstrom}  cell{angstrom}
       E  2.59875e+01 -1.50248e+01  1.06738e+01
       E  4.51503e+00  2.32334e+01  2.34280e+01
       E -1.57041e+01 -3.01819e+01  5.59612e+01
3
# CELL(abcABC): 1322.94304  1322.94304  1322.94304    90.00000    90.00000    90.00000  Step:        8500  Bead:      28 positions{angstrom}  cell{angstrom}
       E  1.52500e+01  9.63719e+00 -3.06368e+01
       E  3.21193e-01  4.79161e+00 -2.03208e+00
       E  2.13178e+01 -3.65329e+01  3.75460e+01
3
# CELL(abcABC): 1322.94304  1322.94304  1322.94304    90.00000    90.00000    90.00000  Step:        8600  Bead:      28 positions{angstrom}  cell{angstrom}
       E -1.82609e+01 -4.59940e+00 -3.87231e+01
       E  1.49939e+01 -2.18397e-01  2.07567e+01
       E  6.61487e+01  2.67233e+01  3.02470e+01
3
# CELL(abcABC): 1322.94304  1322.94304  1322.94304    90.00000    90.00000    90.00000  Step:        8700  Bead:      28 positions{angstrom}  cell{angstrom}
       E -5.42570e+01  2.06609e+01 -6.06515e+00
       E  2.94819e+01 -5.24480e+00  2.39290e+01
       E  7.59548e+01 -1.10530e+01  2.33012e+01
3
# CELL(abcABC): 1322.94304  1322.94304  1322.94304    90.00000    90.00000    90.00000  Step:        8800  Bead:      28 positions{angstrom}  cell{angstrom}
       E -3.70204e+01  4.12014e+00 -2.59777e+01
       E -3.53885e+00 -3.09000e+01  4.65103e+01
       E  3.41745e+01 -5.80179e+01  2.60009e+01
3
# CELL(abcABC): 1322.94304  1322.94304  1322.94304    90.00000    90.00000    90.00000  Step:        8900  Bead:      28 positions{angstrom}  cell{angstrom}
       E -4.58997e+01  5.32858e+01  2.43049e+01
       E -2.11849e+01 -4.38016e+01  3.12876e+01
       E  2.22659e+01 -6.69298e+01 -6.39902e+00
3
# CELL(abcABC): 1322.94304  1322.94304  1322.94304    90.00000    90.00000    90.00000  Step:        9000  Bead:      28 positions{angstrom}  cell{angstrom}
       E -1.15574e+01  3.61681e+01  2.53901e+01
       E -2.65402e+01 -5.76883e+01  5.33583e+01
       E  1.05950e+01 -4.61816e+01 -7.78069e+00
3
# CELL(abcABC): 1322.94304  1322.94304  1322.94304    90.00000    90.00000    90.00000  Step:        9100  Bead:      28 positions{angstrom}  cell{angstrom}
       E -4.25536e+00  3.94480e+01  2.61614e+01
       E -3.23810e+01  4.03585e-02  5.13377e+01
       E  3.57842e+01 -8.52248e+01 -6.89102e+00
3
# CELL(abcABC): 1322.94304  1322.94304  1322.94304    90.00000    90.00000    90.00000  Step:        9200  Bead:      28 positions{angstrom}  cell{angstrom}
       E -1.19861e+01  4.20397e+01 -3.48105e+01
       E -2.32593e+01  7.96738e+00  2.88708e+01
       E  4.63342e+01 -4.32256e+01  5.18716e+00
3
# CELL(abcABC): 1322.94304  1322.94304  1322.94304    90.00000    90.00000    90.00000  Step:        9300  Bead:      28 positions{angstrom}  cell{angstrom}
       E  4.91520e+01  5.83261e+00 -5.09291e+01
       E  7.44697e-01 -3.70125e+01  6.17107e+01
       E  4.65869e+01 -1.23216e+01 -1.99137e+00
3
# CELL(abcABC): 1322.94304  1322.94304  1322.94304    90.00000    90.00000    90.00000  Step:        9400  Bead:      28 positions{angstrom}  cell{angstrom}
       E  6.27938e+01  4.34949e+01 -4.90253e+01
       E -1.41320e+01 -4.02696e+01  5.05617e+01
       E  4.26605e+01  1.55911e-01 -1.53612e+01
3
# CELL(abcABC): 1322.94304  1322.94304  1322.94304    90.00000    90.00000    90.00000  Step:        9500  Bead:      28 positions{angstrom}  cell{angstrom}
       E  3.82167e+01  7.50445e+00 -3.49135e+01
       E  2.56578e+01 -2.81175e+01  2.22405e+00
       E  8.64959e+00  2.54421e+00 -3.48816e+01
3
# CELL(abcABC): 1322.94304  1322.94304  1322.94304    90.00000    90.00000    90.00000  Step:        9600  Bead:      28 positions{angstrom}  cell{angstrom}
       E  7.31901e+00 -2.60397e+01 -6.13805e+01
       E  4.41507e+01 -3.36129e+01  8.60477e+00
       E  1.18853e+01 -9.17867e+00 -1.88433e+00
3
# CELL(abcABC): 1322.94304  1322.94304  1322.94304    90.00000    90.00000    90.00000  Step:        9700  Bead:      28 positions{angstrom}  cell{angstrom}
       E -1.94817e+01 -5.00057e+01 -6.78420e+01
       E  6.17749e+01 -7.22697e+01 -3.05048e+01
       E -4.26066e+01 -2.62166e+00 -8.78396e+00
3
# CELL(abcABC): 1322.94304  1322.94304  1322.94304    90.00000    90.00000    90.00000  Step:        9800  Bead:      28 positions{angstrom}  cell{angstrom}
       E -2.82351e+01 -4.89241e+01 -4.96695e+01
       E  2.94312e+01 -5.16549e+01 -9.54717e+00
       E -4.40775e+01 -1.61048e+01 -1.20051e+01
3