3
# CELL(abcABC): 1322.94304  1322.94304  1322.94304    90.00000    90.00000    90.00000  Step:           0  Bead:      22 positions{angstrom}  cell{angstrom}
       E  0.00000e+00  0.00000e+00  0.00000e+00
       E  0.00000e+00  0.00000e+00  0.00000e+00
       E  0.00000e+00  0.00000e+00  0.00000e+00
3
# CELL(abcABC): 1322.94304  1322.94304  1322.94304    90.00000    90.00000    90.00000  Step:         100  Bead:      22 positions{angstrom}  cell{angstrom}
       E  2.92275e+01  5.54904e+00 -1.74580e+01
       E -1.52046e+01 -4.21399e+01 -1.94120e+01
       E -1.03249e+01  3.21824e+01  5.49441e+00
3
# CELL(abcABC): 1322.94304  1322.94304  1322.94304    90.00000    90.00000    90.00000  Step:         200  Bead:      22 positions{angstrom}  cell{angstrom}
       E -2.25380e-01 -6.20609e+00  8.16750e+00
       E  1.91755e+01 -7.01615e+01 -1.05545e+01
       E  2.17576e+01  4.47145e+01 -5.99875e+00
3
# CELL(abcABC): 1322.94304  1322.94304  1322.94304    90.00000    90.00000    90.00000  Step:         300  Bead:      22 positions{angstrom}  cell{angstrom}
       E  1.32511e+01 -1.20194e+00  2.91716e+01
       E  9.35727e+00 -1.68974e+01  2.20475e+01
       E -2.13221e+00 -5.39744e-01 -1.26258e+01
3
# CELL(abcABC): 1322.94304  1322.94304  1322.94304    90.00000    90.00000    90.00000  Step:         400  Bead:      22 positions{angstrom}  cell{angstrom}
       E  1.21880e+00  3.76473e+00 -9.50664e+00
       E  3.52499e+01 -2.54634e+01 -1.87399e+01
       E -1.20321e+01  2.31655e+01  8.35572e+00
3
# CELL(abcABC): 1322.94304  1322.94304  1322.94304    90.00000    90.00000    90.00000  Step:         500  Bead:      22 positions{angstrom}  cell{angstrom}
       E -4.84214e+00 -1.45060e+00 -4.32439e+01
       E  3.15577e+01 -9.98360e+00  9.64526e+00
       E -2.88630e+01 -3.44278e+00  1.31146e+01
3
# CELL(abcABC): 1322.94304  1322.94304  1322.94304    90.00000    90.00000    90.00000  Step:         600  Bead:      22 positions{angstrom}  cell{angstrom}
       E  4.19969e+01 -1.43691e+01 -4.93427e+01
       E  3.81839e+01  7.90176e-01 -1.76039e+01
       E -1.35480e+01  1.06449e+01  2.60609e+01
3
# CELL(abcABC): 1322.94304  1322.94304  1322.94304    90.00000    90.00000    90.00000  Step:         700  Bead:      22 positions{angstrom}  cell{angstrom}
       E  3.17465e+01 -1.70559e+01 -2.78009e+01
       E  4.61312e+01 -1.10974e+01  8.93640e+00
       E -2.57865e+01 -3.50297e-01  5.94257e+01
3
# CELL(abcABC): 1322.94304  1322.94304  1322.94304    90.00000    90.00000    90.00000  Step:         800  Bead:      22 positions{angstrom}  cell{angstrom}
       E  2.19505e+01  3.37409e-01 -6.31420e+00
       E  5.18303e+01  1.08599e+01  8.27384e+00
       E -2.46433e+01 -5.57561e+00  8.37330e+01
3
# CELL(abcABC): 1322.94304  1322.94304  1322.94304    90.00000    90.00000    90.00000  Step:         900  Bead:      22 positions{angstrom}  cell{angstrom}
       E  2.00654e+01  4.19112e+01 -5.31878e+01
       E  7.48972e+00 -2.88976e+01  6.92155e+00
       E -6.66106e+01  1.76096e+00  1.02432e+02
3
# CELL(abcABC): 1322.94304  1322.94304  1322.94304    90.00000    90.00000    90.00000  Step:        1000  Bead:      22 positions{angstrom}  cell{angstrom}
       E  1.72346e+01  5.53032e+00 -4.43052e+01
       E  9.66338e+00  4.06091e+00 -4.57087e+01
       E -5.08754e+01 -4.24898e-01  9.13522e+01
3
# CELL(abcABC): 1322.94304  1322.94304  1322.94304    90.00000    90.00000    90.00000  Step:        1100  Bead:      22 positions{angstrom}  cell{angstrom}
       E -1.36313e+01  9.97620e+00 -5.75334e+01
       E  1.56350e+00 -1.79725e+01 -2.74193e+01
       E  1.14935e+00  4.48746e+01  7.27590e+01
3
# CELL(abcABC): 1322.94304  1322.94304  1322.94304    90.00000    90.00000    90.00000  Step:        1200  Bead:      22 positions{angstrom}  cell{angstrom}
       E  4.21171e+00  1.21779e+01 -5.48531e+01
       E  2.02237e+01 -1.18772e+01 -2.87371e+01
       E -1.13011e+01  5.54981e+01  1.78163e+01
3
# CELL(abcABC): 1322.94304  1322.94304  1322.94304    90.00000    90.00000    90.00000  Step:        1300  Bead:      22 positions{angstrom}  cell{angstrom}
       E  7.28527e+00  3.48561e+01 -7.27228e+01
       E  2.44143e+01 -2.19913e+01 -7.91040e+01
       E -7.83882e+00  2.95230e+01  1.86133e+01
3
# CELL(abcABC): 1322.94304  1322.94304  1322.94304    90.00000    90.00000    90.00000  Step:        1400  Bead:      22 positions{angstrom}  cell{angstrom}
       E  3.04875e+00  4.67604e+01 -6.45878e+01
       E  1.80276e+01 -1.13277e+00 -4.69101e+01
       E -2.30824e+00 -1.42201e+01  1.86394e+01
3
# CELL(abcABC): 1322.94304  1322.94304  1322.94304    90.00000    90.00000    90.00000  Step:        1500  Bead:      22 positions{angstrom}  cell{angstrom}
       E -1.58742e+00  5.59570e+01 -6.10115e+01
       E -3.23729e+01  3.35955e+01 -2.86920e+01
       E -8.50200e+00 -3.55090e+00  1.52280e+01
3
# CELL(abcABC): 1322.94304  1322.94304  1322.94304    90.00000    90.00000    90.00000  Step:        1600  Bead:      22 positions{angstrom}  cell{angstrom}
       E -1.49916e+01  3.44208e+01 -3.48964e+01
       E -4.72130e+01  6.07818e+00 -2.40912e+01
       E  3.21679e+01  5.12732e+01  1.75762e+01
3
# CELL(abcABC): 1322.94304  1322.94304  1322.94304    90.00000    90.00000    90.00000  Step:        1700  Bead:      22 positions{angstrom}  cell{angstrom}
       E -1.92083e+01  5.10898e+01 -2.99480e+01
       E -2.68358e+01  2.53179e+01  3.32635e+01
       E  9.97801e+00  7.55519e+01 -1.68396e+01
3
# CELL(abcABC): 1322.94304  1322.94304  1322.94304    90.00000    90.00000    90.00000  Step:        1800  Bead:      22 positions{angstrom}  cell{angstrom}
       E -1.04883e+00  2.80922e+01  2.01659e+01
       E -5.47778e+01  3.76961e+01  3.75435e+01
       E -5.24850e+01  5.31244e+01  5.14979e+00
3
# CELL(abcABC): 1322.94304  1322.94304  1322.94304    90.00000    90.00000    90.00000  Step:        1900  Bead:      22 positions{angstrom}  cell{angstrom}
       E  2.62749e+01 -3.22897e+00  3.94739e+01
       E -3.78737e+01  6.05193e+01 -3.11903e+00
       E -8.50223e+01  4.24774e+01  8.79927e+00
3
# CELL(abcABC): 1322.94304  1322.94304  1322.94304    90.00000    90.00000    90.00000  Step:        2000  Bead:      22 positions{angstrom}  cell{angstrom}
       E -3.42902e+01 -4.12739e+01  5.94394e+01
       E -4.64748e+01 -5.65592e+00  1.29733e+01
       E -6.40684e+01  9.89303e+01 -2.06804e+01
3
# CELL(abcABC): 1322.94304  1322.94304  1322.94304    90.00000    90.00000    90.00000  Step:        2100  Bead:      22 positions{angstrom}  cell{angstrom}
       E -4.81014e+01 -4.88682e+01  5.52412e+01
       E -1.86351e+01  2.32958e+00  1.65106e+01
       E -7.17936e+01  1.01563e+02  3.79406e+01
3
# CELL(abcABC): 1322.94304  1322.94304  1322.94304    90.00000    90.00000    90.00000  Step:        2200  Bead:      22 positions{angstrom}  cell{angstrom}
       E -1.91797e+00 -5.22569e+01  8.05484e+00
       E -2.82139e+01 -2.70132e+01  1.05365e+01
       E -5.31165e+01  3.17718e+01 -9.64872e+00
3
# CELL(abcABC): 1322.94304  1322.94304  1322.94304    90.00000    90.00000    90.00000  Step:        2300  Bead:      22 positions{angstrom}  cell{angstrom}
       E -2.20144e+01 -6.79180e+01  5.23092e+01
       E -5.43134e+01 -1.09740e+00 -2.62374e+01
       E -4.84628e+01  3.07364e+01 -2.34160e+01
3
# CELL(abcABC): 1322.94304  1322.94304  1322.94304    90.00000    90.00000    90.00000  Step:        2400  Bead:      22 positions{angstrom}  cell{angstrom}
       E -2.55909e+01 -1.25868e+01  1.83019e+01
       E -1.07513e+01 -2.77767e+01 -2.53098e+01
       E -1.00461e+01  1.05621e+01  1.53318e+01
3
# CELL(abcABC): 1322.94304  1322.94304  1322.94304    90.00000    90.00000    90.00000  Step:        2500  Bead:      22 positions{angstrom}  cell{angstrom}
       E -5.47263e+01 -2.75944e+01  1.43605e+01
       E -2.96558e+01 -3.75918e+01 -2.98222e+01
       E  3.00383e+01 -8.77220e+00  3.34300e+01
3
# CELL(abcABC): 1322.94304  1322.94304  1322.94304    90.00000    90.00000    90.00000  Step:        2600  Bead:      22 positions{angstrom}  cell{angstrom}
       E -5.52234e+01 -1.53518e+00  3.12082e+01
       E -6.48153e+01 -2.69837e+01 -4.21995e+01
       E  2.64017e+01 -1.79754e+00  1.02818e+02
3
# CELL(abcABC): 1322.94304  1322.94304  1322.94304    90.00000    90.00000    90.00000  Step:        2700  Bead:      22 positions{angstrom}  cell{angstrom}
       E -6.35798e+01 -2.04500e+01  3.52223e+01
       E -5.06916e+01 -4.41013e+01 -4.31322e+01
       E  1.08358e+01 -6.21194e+01  6.73377e+01
3
# CELL(abcABC): 1322.94304  1322.94304  1322.94304    90.00000    90.00000    90.00000  Step:        2800  Bead:      22 positions{angstrom}  cell{angstrom}
       E -4.28353e+01 -2.18367e+01  8.60638e+01
       E -7.23055e+01 -5.31633e+01  1.62152e+00
       E  1.92838e+01 -3.33792e+01  3.77259e+01
3
# CELL(abcABC): 1322.94304  1322.94304  1322.94304    90.00000    90.00000    90.00000  Step:        2900  Bead:      22 positions{angstrom}  cell{angstrom}
       E -7.29165e+01 -3.72936e+01  7.65293e+01
       E -8.24846e+01 -6.35658e+01  2.58925e+01
       E  2.31667e+01 -1.01298e+01  2.29969e+01
3
# CELL(abcABC): 1322.94304  1322.94304  1322.94304    90.00000    90.00000    90.00000  Step:        3000  Bead:      22 positions{angstrom}  cell{angstrom}
       E -6.26321e+01 -6.88870e+01  8.10436e+01
       E -7.55475e+01 -4.75902e+01 -5.86711e+00
       E  1.10597e+01  2.41601e+01  1.11054e+01
3
# CELL(abcABC): 1322.94304  1322.94304  1322.94304    90.00000    90.00000    90.00000  Step:        3100  Bead:      22 positions{angstrom}  cell{angstrom}
       E -7.27980e+01 -2.93236e+01  8.32375e+01
       E -9.03882e+01 -5.10372e+01  3.33859e+01
       E  6.96029e+01  6.57727e+01  1.12202e+01
3
# CELL(abcABC): 1322.94304  1322.94304  1322.94304    90.00000    90.00000    90.00000  Step:        3200  Bead:      22 positions{angstrom}  cell{angstrom}
       E -1.03899e+02 -1.09021e+01  2.34473e+01
       E -7.82429e+01 -2.48169e+01  5.48795e+01
       E  3.12576e+01  7.24335e+01  1.11304e+01
3
# CELL(abcABC): 1322.94304  1322.94304  1322.94304    90.00000    90.00000    90.00000  Step:        3300  Bead:      22 positions{angstrom}  cell{angstrom}
       E -4.90088e+01 -5.53756e+00  4.49089e+01
       E -9.67025e+01 -4.32947e+01  6.66546e+01
       E  2.22244e+01  6.80759e+01 -3.67983e+01
3
# CELL(abcABC): 1322.94304  1322.94304  1322.94304    90.00000    90.00000    90.00000  Step:        3400  Bead:      22 positions{angstrom}  cell{angstrom}
       E -8.50378e+01  1.05712e+00  7.80630e+01
       E -6.02752e+01 -3.17868e+01  4.21688e+01
       E  2.39446e+01  4.44921e+01  1.58365e+01
3
# CELL(abcABC): 1322.94304  1322.94304  1322.94304    90.00000    90.00000    90.00000  Step:        3500  Bead:      22 positions{angstrom}  cell{angstrom}
       E -1.05965e+02 -1.11647e+01  7.39085e+01
       E -1.04044e+01 -2.88368e+01  4.21952e+01
       E  1.17288e+01  4.69956e+01  1.74244e+01
3
# CELL(abcABC): 1322.94304  1322.94304  1322.94304    90.00000    90.00000    90.00000  Step:        3600  Bead:      22 positions{angstrom}  cell{angstrom}
       E -1.10953e+02 -1.24523e+01  3.80284e+01
       E  6.75564e-01 -4.34668e+01  3.95204e+01
       E -1.66701e+01  3.08499e+01  1.38968e+01
3
# CELL(abcABC): 1322.94304  1322.94304  1322.94304    90.00000    90.00000    90.00000  Step:        3700  Bead:      22 positions{angstrom}  cell{angstrom}
       E -8.98268e+01  2.26114e+00  8.82461e-01
       E -5.92898e+00 -3.93746e+01  2.02821e+01
       E -5.08750e+01  2.76774e+01  1.71058e+01
3
# CELL(abcABC): 1322.94304  1322.94304  1322.94304    90.00000    90.00000    90.00000  Step:        3800  Bead:      22 positions{angstrom}  cell{angstrom}
       E -6.91207e+01 -8.93747e+00 -1.87361e+01
       E -4.04685e+00 -2.97292e+01  4.01292e+01
       E -5.76258e+01  1.41036e+01 -1.81900e+00
3
# CELL(abcABC): 1322.94304  1322.94304  1322.94304    90.00000    90.00000    90.00000  Step:        3900  Bead:      22 positions{angstrom}  cell{angstrom}
       E -7.97724e+01 -1.51289e+01 -2.44493e+01
       E -1.01309e+01 -1.09053e+01  1.04961e+01
       E -1.58670e+01 -9.20692e+00  6.03810e+00
3
# CELL(abcABC): 1322.94304  1322.94304  1322.94304    90.00000    90.00000    90.00000  Step:        4000  Bead:      22 positions{angstrom}  cell{angstrom}
       E -9.67552e+01 -2.38099e+00 -5.27628e+01
       E -3.95465e+01  2.19497e-01  2.03967e+01
       E -1.41641e+00  1.75721e+01  5.36527e+01
3
# CELL(abcABC): 1322.94304  1322.94304  1322.94304    90.00000    90.00000    90.00000  Step:        4100  Bead:      22 positions{angstrom}  cell{angstrom}
       E -1.05521e+02  2.39372e+01 -9.03130e+01
       E -3.65837e+01 -1.19126e+00 -3.42324e+01
       E  2.16453e+00 -7.19087e+00  3.12237e+01
3
# CELL(abcABC): 1322.94304  1322.94304  1322.94304    90.00000    90.00000    90.00000  Step:        4200  Bead:      22 positions{angstrom}  cell{angstrom}
       E -1.01124e+02 -4.03522e+00 -1.12244e+02
       E -5.73222e+01  6.59715e+00  1.49282e+01
       E  1.97689e+01  1.89832e+01  2.97102e+01
3
# CELL(abcABC): 1322.94304  1322.94304  1322.94304    90.00000    90.00000    90.00000  Step:        4300  Bead:      22 positions{angstrom}  cell{angstrom}
       E -5.55618e+01  2.58461e+01 -5.25434e+01
       E -1.42255e+01  3.01417e+01 -4.78773e+00
       E  1.43202e+01  3.23124e-01  3.32712e+01
3
# CELL(abcABC): 1322.94304  1322.94304  1322.94304    90.00000    90.00000    90.00000  Step:        4400  Bead:      22 positions{angstrom}  cell{angstrom}
       E -6.10440e+01  3.14051e+01 -6.86303e+01
       E -5.70021e+00  5.73982e+01 -3.43213e+01
       E  4.01117e+01 -4.88758e+01  1.30881e+01
3
# CELL(abcABC): 1322.94304  1322.94304  1322.94304    90.00000    90.00000    90.00000  Step:        4500  Bead:      22 positions{angstrom}  cell{angstrom}
       E -5.36938e+01  3.77749e+01 -6.13108e+01
       E -3.43793e+01  6.71622e+01 -2.88139e+01
       E  3.61274e+01 -3.37337e+01  4.20187e+01
3
# CELL(abcABC): 1322.94304  1322.94304  1322.94304    90.00000    90.00000    90.00000  Step:        4600  Bead:      22 positions{angstrom}  cell{angstrom}
       E -5.52069e+01  2.75404e+01 -3.45380e+01
       E -3.77271e+01  8.38657e+01  1.54498e+01
       E -1.01992e+01 -1.48435e+01  1.91400e+01
3
# CELL(abcABC): 1322.94304  1322.94304  1322.94304    90.00000    90.00000    90.00000  Step:        4700  Bead:      22 positions{angstrom}  cell{angstrom}
       E -1.93291e+01  2.75054e+01 -9.10400e+01
       E -6.50017e+01  6.50709e+01  2.71985e+00
       E -1.32084e+01 -5.41948e+01  2.01228e+00
3
# CELL(abcABC): 1322.94304  1322.94304  1322.94304    90.00000    90.00000    90.00000  Step:        4800  Bead:      22 positions{angstrom}  cell{angstrom}
       E -1.96795e+01  2.06272e-01 -4.51250e+01
       E -4.96102e+01  2.81613e+01 -9.42427e+00
       E  1.86485e+01 -3.06072e+01  3.96368e+01
3
# CELL(abcABC): 1322.94304  1322.94304  1322.94304    90.00000    90.00000    90.00000  Step:        4900  Bead:      22 positions{angstrom}  cell{angstrom}
       E  2.20579e+01  1.02680e+01 -1.86788e+01
       E -4.12508e+01 -1.09059e+01 -3.45327e+01
       E -1.00473e+01 -3.82514e+01 -2.11266e+01
3
# CELL(abcABC): 1322.94304  1322.94304  1322.94304    90.00000    90.00000    90.00000  Step:        5000  Bead:      22 positions{angstrom}  cell{angstrom}
       E  5.15649e+01  1.64176e+00  1.49664e+01
       E -5.46291e+01 -1.51802e+01 -5.37317e+01
       E -4.74403e+00  7.91929e+00 -2.29367e+01
3
# CELL(abcABC): 1322.94304  1322.94304  1322.94304    90.00000    90.00000    90.00000  Step:        5100  Bead:      22 positions{angstrom}  cell{angstrom}
       E -1.93669e+00  1.23825e+01  3.67487e+01
       E -4.58251e+01 -2.22590e+01 -3.73146e+01
       E  1.81150e+01  1.22106e+01 -4.50345e+01
3
# CELL(abcABC): 1322.94304  1322.94304  1322.94304    90.00000    90.00000    90.00000  Step:        5200  Bead:      22 positions{angstrom}  cell{angstrom}
       E -2.62289e+01 -2.92216e+00  4.19818e+01
       E -3.04180e+01 -6.32220e-02 -4.16365e+01
       E  1.47109e+01  1.26966e+01 -1.63158e+00
3
# CELL(abcABC): 1322.94304  1322.94304  1322.94304    90.00000    90.00000    90.00000  Step:        5300  Bead:      22 positions{angstrom}  cell{angstrom}
       E -4.38359e+00 -2.42442e+01  3.19840e+01
       E -1.98651e+01  3.62950e+01 -3.39495e+01
       E -5.33520e+01  2.67585e+01  2.43140e+00
3
# CELL(abcABC): 1322.94304  1322.94304  1322.94304    90.00000    90.00000    90.00000  Step:        5400  Bead:      22 positions{angstrom}  cell{angstrom}
       E  3.52877e+01  5.58409e+00 -1.43934e+01
       E -1.97794e+01 -3.38064e+01  1.34450e+01
       E -3.07198e+01  3.63125e+01  1.24274e+01
3
# CELL(abcABC): 1322.94304  1322.94304  1322.94304    90.00000    90.00000    90.00000  Step:        5500  Bead:      22 positions{angstrom}  cell{angstrom}
       E  6.92707e+01 -3.30060e+01 -3.05500e+01
       E -3.03216e+01  2.05942e+01 -1.00305e+01
       E -2.63234e+01  1.80459e+01  2.84400e+01
3
# CELL(abcABC): 1322.94304  1322.94304  1322.94304    90.00000    90.00000    90.00000  Step:        5600  Bead:      22 positions{angstrom}  cell{angstrom}
       E  1.62206e+01  1.04651e+01 -2.91288e+01
       E -1.80059e+01  6.95270e+00  1.39561e+01
       E -6.18539e+01  9.14068e+00  2.65777e+01
3
# CELL(abcABC): 1322.94304  1322.94304  1322.94304    90.00000    90.00000    90.00000  Step:        5700  Bead:      22 positions{angstrom}  cell{angstrom}
       E  3.91427e+01 -1.23548e+01 -4.67184e+01
       E -4.78713e+01 -9.74959e+00 -5.55523e+00
       E -4.70803e+01  1.56152e+01  1.16376e+00
3
# CELL(abcABC): 1322.94304  1322.94304  1322.94304    90.00000    90.00000    90.00000  Step:        5800  Bead:      22 positions{angstrom}  cell{angstrom}
       E  2.06868e+01  5.41218e+00 -4.36435e+01
       E -3.62672e+01  1.32555e+01 -1.04241e+01
       E -2.51732e+01  1.44195e-01  9.91272e+00
3
# CELL(abcABC): 1322.94304  1322.94304  1322.94304    90.00000    90.00000    90.00000  Step:        5900  Bead:      22 positions{angstrom}  cell{angstrom}
       E  4.20338e+01  1.97622e+01 -2.42368e+01
       E -1.87256e+01  8.65790e+00 -2.01949e-01
       E  1.09911e+00 -5.43013e+01 -2.10849e+01
3
# CELL(abcABC): 1322.94304  1322.94304  1322.94304    90.00000    90.00000    90.00000  Step:        6000  Bead:      22 positions{angstrom}  cell{angstrom}
       E -1.08755e+01 -3.40859e+01 -2.99693e+01
       E  2.35319e+01 -2.87187e+00 -1.90269e+01
       E  1.50257e+01 -2.71580e+01  7.10597e-01
3
# CELL(abcABC): 1322.94304  1322.94304  1322.94304    90.00000    90.00000    90.00000  Step:        6100  Bead:      22 positions{angstrom}  cell{angstrom}
       E -1.26512e+01 -5.22727e+01 -3.17122e+01
       E  7.80001e+01  4.55611e+01 -3.65643e+01
       E  1.37353e+01 -4.52259e+01 -2.51966e-01
3
# CELL(abcABC): 1322.94304  1322.94304  1322.94304    90.00000    90.00000    90.00000  Step:        6200  Bead:      22 positions{angstrom}  cell{angstrom}
       E  1.81806e+01 -1.37833e+01 -1.07724e+02
       E  1.28985e+02  2.72609e+01  1.03699e+01
       E  2.33104e+01 -3.94977e+01  1.01977e+01
3
# CELL(abcABC): 1322.94304  1322.94304  1322.94304    90.00000    90.00000    90.00000  Step:        6300  Bead:      22 positions{angstrom}  cell{angstrom}
       E  5.09131e+01 -5.41819e+01 -1.40102e+02
       E  7.23352e+01 -3.89564e+00 -3.06116e+01
       E -1.03776e+01 -3.23848e+01  1.10176e+01
3
# CELL(abcABC): 1322.94304  1322.94304  1322.94304    90.00000    90.00000    90.00000  Step:        6400  Bead:      22 positions{angstrom}  cell{angstrom}
       E  8.11695e+01 -5.54767e+01 -1.35606e+02
       E  1.69114e+01 -2.83593e+01 -4.38455e+01
       E  1.08680e+01 -3.56228e+01 -2.53958e+01
3
# CELL(abcABC): 1322.94304  1322.94304  1322.94304    90.00000    90.00000    90.00000  Step:        6500  Bead:      22 positions{angstrom}  cell{angstrom}
       E  5.33345e+01 -8.18524e+01 -1.14290e+02
       E  2.76772e+01  4.01238e+01 -6.25634e+01
       E  3.67042e+01 -2.18188e+00  2.39567e+01
3
# CELL(abcABC): 1322.94304  1322.94304  1322.94304    90.00000    90.00000    90.00000  Step:        6600  Bead:      22 positions{angstrom}  cell{angstrom}
       E  1.12236e+01 -1.09043e+02 -7.99317e+01
       E  9.31371e+00 -4.76975e+00 -5.12831e+01
       E  3.63503e+01  1.18895e+01  2.04213e+01
3
# CELL(abcABC): 1322.94304  1322.94304  1322.94304    90.00000    90.00000    90.00000  Step:        6700  Bead:      22 positions{angstrom}  cell{angstrom}
       E -1.16447e+01 -1.05444e+02 -8.36827e+01
       E  4.52762e+01 -9.91383e+00 -1.63923e+01
       E  2.18624e+01 -8.18963e-01  3.83167e+01
3
# CELL(abcABC): 1322.94304  1322.94304  1322.94304    90.00000    90.00000    90.00000  Step:        6800  Bead:      22 positions{angstrom}  cell{angstrom}
       E  1.85089e+01 -1.11425e+02 -6.41932e+01
       E  7.71369e+01 -1.47589e+01 -1.28202e+01
       E -6.67054e-01 -1.74579e+01  9.60142e+00
3
# CELL(abcABC): 1322.94304  1322.94304  1322.94304    90.00000    90.00000    90.00000  Step:        6900  Bead:      22 positions{angstrom}  cell{angstrom}
       E  3.09498e+01 -7.24853e+01 -5.05637e+01
       E  5.75147e+01 -4.50936e+01 -1.77684e+01
       E -3.70960e+01 -6.21307e+00 -3.49583e+01
3
# CELL(abcABC): 1322.94304  1322.94304  1322.94304    90.00000    90.00000    90.00000  Step:        7000  Bead:      22 positions{angstrom}  cell{angstrom}
       E  2.32133e+01 -3.64288e+01 -1.26616e+01
       E  5.11480e+01  8.72048e+00 -3.71362e+01
       E  3.39847e+01 -1.83448e+00 -4.25430e+01
3
# CELL(abcABC): 1322.94304  1322.94304  1322.94304    90.00000    90.00000    90.00000  Step:        7100  Bead:      22 positions{angstrom}  cell{angstrom}
       E  7.05347e+01 -1.27590e+01 -3.15213e+01
       E  1.42470e+01  5.11909e+00  1.29675e+01
       E  5.11831e+01  2.07792e+01 -2.93534e+01
3
# CELL(abcABC): 1322.94304  1322.94304  1322.94304    90.00000    90.00000    90.00000  Step:        7200  Bead:      22 positions{angstrom}  cell{angstrom}
       E  1.46951e+01 -2.71943e+01 -4.81234e+01
       E -5.10913e+01  5.43907e+01 -4.55951e-01
       E  8.70614e+01  5.21200e+01 -4.44953e+01
3
# CELL(abcABC): 1322.94304  1322.94304  1322.94304    90.00000    90.00000    90.00000  Step:        7300  Bead:      22 positions{angstrom}  cell{angstrom}
       E  4.03086e+01 -3.35784e+01 -4.28558e+01
       E -3.31629e+01  1.53516e+01  2.04182e+01
       E  7.16975e+01  2.46751e+01 -1.01290e+01
3
# CELL(abcABC): 1322.94304  1322.94304  1322.94304    90.00000    90.00000    90.00000  Step:        7400  Bead:      22 positions{angstrom}  cell{angstrom}
       E -6.79172e+00 -3.89585e+01 -1.82552e+01
       E -3.62091e+01 -2.75884e+01  6.56912e+00
       E  5.30561e+01  5.91889e+01 -8.00461e+00
3
# CELL(abcABC): 1322.94304  1322.94304  1322.94304    90.00000    90.00000    90.00000  Step:        7500  Bead:      22 positions{angstrom}  cell{angstrom}
       E -2.50488e+01 -5.35839e+01 -4.84677e+01
       E -2.47506e+01 -2.47820e+01  5.35828e+00
       E  7.35301e+01  6.46706e+00  2.47512e+00
3
# CELL(abcABC): 1322.94304  1322.94304  1322.94304    90.00000    90.00000    90.00000  Step:        7600  Bead:      22 positions{angstrom}  cell{angstrom}
       E -1.53501e+01 -4.90099e+01 -6.35709e+01
       E -4.19391e+01 -4.01824e+01  2.10377e+00
       E  4.47653e+01  2.25400e+01 -3.36681e+01
3
# CELL(abcABC): 1322.94304  1322.94304  1322.94304    90.00000    90.00000    90.00000  Step:        7700  Bead:      22 positions{angstrom}  cell{angstrom}
       E -9.14718e+00 -7.42903e+01 -4.65917e+01
       E -1.24750e+01 -3.73402e+01 -1.66624e+01
       E  7.04396e+01 -5.38013e+00 -1.41044e+01
3
# CELL(abcABC): 1322.94304  1322.94304  1322.94304    90.00000    90.00000    90.00000  Step:        7800  Bead:      22 positions{angstrom}  cell{angstrom}
       E  1.43604e+01 -6.16190e+01 -3.92907e+01
       E  1.18216e+01 -2.18510e+01 -3.04464e+01
       E  5.50583e+01 -5.24851e+00 -3.35790e+01
3
# CELL(abcABC): 1322.94304  1322.94304  1322.94304    90.00000    90.00000    90.00000  Step:        7900  Bead:      22 positions{angstrom}  cell{angstrom}
       E  3.91910e+01 -5.20548e+01 -5.05810e+01
       E  2.43201e+01 -4.20812e+01 -6.09169e+01
       E -2.81588e+00 -2.26713e+01 -2.67195e+01
3
# CELL(abcABC): 1322.94304  1322.94304  1322.94304    90.00000    90.00000    90.00000  Step:        8000  Bead:      22 positions{angstrom}  cell{angstrom}
       E  2.95915e+01 -2.29677e+01  5.11549e-01
       E -1.25271e+01  1.14801e+01 -4.23338e+01
       E  1.35447e+01 -6.31677e+00 -5.08232e+01
3
# CELL(abcABC): 1322.94304  1322.94304  1322.94304    90.00000    90.00000    90.00000  Step:        8100  Bead:      22 positions{angstrom}  cell{angstrom}
       E  2.65895e+00  2.75765e+01 -1.67737e+01
       E -3.88891e+01  1.01697e+01 -3.36751e+01
       E  1.20291e+01  2.68021e+00 -1.50429e+01
3
# CELL(abcABC): 1322.94304  1322.94304  1322.94304    90.00000    90.00000    90.00000  Step:        8200  Bead:      22 positions{angstrom}  cell{angstrom}
       E  2.25320e+00  2.36532e+01 -1.08639e+01
       E -7.24082e+00  9.82114e-02 -4.07981e+01
       E -1.91958e+00 -3.72851e+01  1.87120e+01
3
# CELL(abcABC): 1322.94304  1322.94304  1322.94304    90.00000    90.00000    90.00000  Step:        8300  Bead:      22 positions{angstrom}  cell{angstrom}
       E -1.97841e+01  4.32950e+01  1.06311e+01
       E -5.59559e+00  1.39667e+01 -2.22129e+01
       E  7.53622e-01 -4.70634e+01  4.48815e+01
3
# CELL(abcABC): 1322.94304  1322.94304  1322.94304    90.00000    90.00000    90.00000  Step:        8400  Bead:      22 positions{angstrom}  cell{angstrom}
       E -3.49897e+01  2.49501e+01  2.64476e+00
       E  1.22599e+01  1.34995e+01 -9.06367e+00
       E -2.18761e+01 -6.43194e+01  2.88851e+01
3
# CELL(abcABC): 1322.94304  1322.94304  1322.94304    90.00000    90.00000    90.00000  Step:        8500  Bead:      22 positions{angstrom}  cell{angstrom}
       E -8.94370e+00 -1.02241e+01 -2.50302e+01
       E  9.74832e+00  1.84145e+01  8.75492e+00
       E  1.27806e+01 -3.82868e+01  7.08299e+01
3
# CELL(abcABC): 1322.94304  1322.94304  1322.94304    90.00000    90.00000    90.00000  Step:        8600  Bead:      22 positions{angstrom}  cell{angstrom}
       E -1.13723e-02 -1.98131e+01 -1.49899e+01
       E  1.14798e+01  1.57181e+01  1.82886e+01
       E  7.23087e+01 -1.46224e+01  5.71059e+01
3
# CELL(abcABC): 1322.94304  1322.94304  1322.94304    90.00000    90.00000    90.00000  Step:        8700  Bead:      22 positions{angstrom}  cell{angstrom}
       E -3.74782e+00 -4.45079e+00  2.32939e+00
       E  1.92374e+01 -1.32028e+01  1.63860e+01
       E  4.98201e+01 -1.74480e+01  1.91124e+01
3
# CELL(abcABC): 1322.94304  1322.94304  1322.94304    90.00000    90.00000    90.00000  Step:        8800  Bead:      22 positions{angstrom}  cell{angstrom}
       E -3.94907e+01  2.07465e+01 -1.15609e+01
       E  1.97371e-01 -2.08290e+01  6.74327e+00
       E  1.00407e+02 -5.33310e+01 -2.21481e+01
3
# CELL(abcABC): 1322.94304  1322.94304  1322.94304    90.00000    90.00000    90.00000  Step:        8900  Bead:      22 positions{angstrom}  cell{angstrom}
       E -5.50036e+01  1.81652e+01  3.04699e+01
       E  3.25495e+01 -3.39447e+01  6.56905e+00
       E  7.32517e+01 -6.84061e+01  1.08503e+00
3
# CELL(abcABC): 1322.94304  1322.94304  1322.94304    90.00000    90.00000    90.00000  Step:        9000  Bead:      22 positions{angstrom}  cell{angstrom}
       E -3.46758e+01  4.70125e+00  3.25376e+01
       E  1.45984e+01 -6.76309e+00  5.79873e+01
       E  1.52735e+01 -4.56128e+01  1.52279e+01
3
# CELL(abcABC): 1322.94304  1322.94304  1322.94304    90.00000    90.00000    90.00000  Step:        9100  Bead:      22 positions{angstrom}  cell{angstrom}
       E -2.62870e+01  3.15240e+01 -4.86032e+00
       E  1.62722e+01 -2.47361e+01  5.49834e+01
       E  8.66038e+00 -1.34770e+01 -1.37732e+01
3
# CELL(abcABC): 1322.94304  1322.94304  1322.94304    90.00000    90.00000    90.00000  Step:        9200  Bead:      22 positions{angstrom}  cell{angstrom}
       E -4.48628e+00 -2.49406e+00 -1.81980e+01
       E -8.42337e+00  4.27210e+00  3.05948e+01
       E  4.91083e+01 -5.80204e+01  1.25399e+01
3
# CELL(abcABC): 1322.94304  1322.94304  1322.94304    90.00000    90.00000    90.00000  Step:        9300  Bead:      22 positions{angstrom}  cell{angstrom}
       E  1.74635e+01 -1.32890e+01 -2.82043e+01
       E -6.35322e+01 -3.17965e+01  2.37156e+01
       E  7.30186e+00 -3.08331e+01 -2.69523e+01
3
# CELL(abcABC): 1322.94304  1322.94304  1322.94304    90.00000    90.00000    90.00000  Step:        9400  Bead:      22 positions{angstrom}  cell{angstrom}
       E  1.37042e+01  1.86390e+01 -5.25858e+01
       E -3.11432e+01  5.50168e+00  6.57814e+01
       E  4.25989e+00 -1.43309e+01  3.36501e-01
3
# CELL(abcABC): 1322.94304  1322.94304  1322.94304    90.00000    90.00000    90.00000  Step:        9500  Bead:      22 positions{angstrom}  cell{angstrom}
       E  9.16434e+00  4.33377e+01 -3.28098e+01
       E  9.33771e+00 -5.21137e+01  4.80254e+01
       E  2.49041e+01 -5.46628e+01  1.41838e+01
3
# CELL(abcABC): 1322.94304  1322.94304  1322.94304    90.00000    90.00000    90.00000  Step:        9600  Bead:      22 positions{angstrom}  cell{angstrom}
       E  1.25647e+01  2.13425e+01 -4.34902e+01
       E  3.60095e+01 -8.12397e+01  1.00783e+01
       E  7.76513e+00 -2.94640e+00  4.77480e+00
3
# CELL(abcABC): 1322.94304  1322.94304  1322.94304    90.00000    90.00000    90.00000  Step:        9700  Bead:      22 positions{angstrom}  cell{angstrom}
       E -3.39594e+00 -4.74399e+01 -4.63639e+01
       E  2.60272e+01 -7.40515e+01  5.39397e+00
       E  2.11615e+01  9.84051e+00  2.68907e+00
3
# CELL(abcABC): 1322.94304  1322.94304  1322.94304    90.00000    90.00000    90.00000  Step:        9800  Bead:      22 positions{angstrom}  cell{angstrom}
       E -2.42933e+01 -5.18087e+01 -3.95090e+01
       E  1.54467e+01 -4.51246e+01  5.02196e+00
       E -2.29586e+01 -2.00527e+01  6.17318e+00
3