3
# CELL(abcABC): 1322.94304  1322.94304  1322.94304    90.00000    90.00000    90.00000  Step:           0  Bead:      15 positions{angstrom}  cell{angstrom}
       E  0.00000e+00  0.00000e+00  0.00000e+00
       E  0.00000e+00  0.00000e+00  0.00000e+00
       E  0.00000e+00  0.00000e+00  0.00000e+00
3
# CELL(abcABC): 1322.94304  1322.94304  1322.94304    90.00000    90.00000    90.00000  Step:         100  Bead:      15 positions{angstrom}  cell{angstrom}
       E  6.87236e+00  8.88736e+00  2.61159e+01
       E  2.88374e+01 -5.08568e+00  8.51003e+00
       E -2.52941e+00  1.56874e+00 -3.38571e+01
3
# CELL(abcABC): 1322.94304  1322.94304  1322.94304    90.00000    90.00000    90.00000  Step:         200  Bead:      15 positions{angstrom}  cell{angstrom}
       E -4.79424e+00  6.92871e+00  5.92224e+00
       E  2.79864e+01 -3.35575e+01 -2.95731e+01
       E -5.17692e+00  2.09532e+01 -1.71001e+01
3
# CELL(abcABC): 1322.94304  1322.94304  1322.94304    90.00000    90.00000    90.00000  Step:         300  Bead:      15 positions{angstrom}  cell{angstrom}
       E -3.25476e+01  1.90433e+01  1.47580e+01
       E  2.71486e+01 -4.54184e+00 -2.63309e+01
       E -1.32072e+01  4.82227e+01 -8.39436e-03
3
# CELL(abcABC): 1322.94304  1322.94304  1322.94304    90.00000    90.00000    90.00000  Step:         400  Bead:      15 positions{angstrom}  cell{angstrom}
       E -1.94762e+01  3.54202e+01  1.98682e+01
       E  2.63038e+01  2.09745e+01 -2.00572e+00
       E -5.37354e+01  3.20323e+01  1.51202e+01
3
# CELL(abcABC): 1322.94304  1322.94304  1322.94304    90.00000    90.00000    90.00000  Step:         500  Bead:      15 positions{angstrom}  cell{angstrom}
       E -3.05696e+01  9.95151e+00 -2.40788e+00
       E  4.84079e+01  3.60704e+01 -2.79004e-01
       E -1.46988e+01  2.52795e+01  3.31526e+01
3
# CELL(abcABC): 1322.94304  1322.94304  1322.94304    90.00000    90.00000    90.00000  Step:         600  Bead:      15 positions{angstrom}  cell{angstrom}
       E -6.98146e+00 -1.29621e+01 -3.90496e+01
       E  4.77692e+01 -1.08082e+01  5.41845e+00
       E -1.56959e+01  1.18010e+01  9.75236e+00
3
# CELL(abcABC): 1322.94304  1322.94304  1322.94304    90.00000    90.00000    90.00000  Step:         700  Bead:      15 positions{angstrom}  cell{angstrom}
       E -1.75618e+01  2.11269e-01 -2.13587e+01
       E  1.07721e+01  4.89217e+01  7.12583e+00
       E -4.10096e+01  1.83174e+01  2.97175e+01
3
# CELL(abcABC): 1322.94304  1322.94304  1322.94304    90.00000    90.00000    90.00000  Step:         800  Bead:      15 positions{angstrom}  cell{angstrom}
       E -1.97101e+00  2.00097e+01 -3.78676e+00
       E  6.76373e+00  3.59300e+01  7.28311e+00
       E -2.73268e+01 -1.30993e+01  4.92013e+01
3
# CELL(abcABC): 1322.94304  1322.94304  1322.94304    90.00000    90.00000    90.00000  Step:         900  Bead:      15 positions{angstrom}  cell{angstrom}
       E  6.84936e+00  1.69681e+01 -2.67106e+01
       E  3.15392e+01  3.71785e+01 -7.07361e+00
       E -4.72210e+01 -3.20157e+00  7.12218e+01
3
# CELL(abcABC): 1322.94304  1322.94304  1322.94304    90.00000    90.00000    90.00000  Step:        1000  Bead:      15 positions{angstrom}  cell{angstrom}
       E  3.21245e+00  5.68314e+00 -6.52224e+01
       E  2.44127e+01 -1.22359e+01 -4.76647e+01
       E -4.15836e+01 -2.36057e+01  7.93638e+01
3
# CELL(abcABC): 1322.94304  1322.94304  1322.94304    90.00000    90.00000    90.00000  Step:        1100  Bead:      15 positions{angstrom}  cell{angstrom}
       E  1.48407e+01 -2.28470e+01 -6.12984e+01
       E  3.98299e+00  5.88229e+00 -5.86356e+01
       E -3.25880e+01  5.56117e+01  4.44119e+01
3
# CELL(abcABC): 1322.94304  1322.94304  1322.94304    90.00000    90.00000    90.00000  Step:        1200  Bead:      15 positions{angstrom}  cell{angstrom}
       E  3.22870e+01 -2.27243e+00 -1.06229e+02
       E  2.26196e+01 -4.14639e+01 -2.01067e+01
       E -1.33250e+01  3.91908e+01  6.34599e+01
3
# CELL(abcABC): 1322.94304  1322.94304  1322.94304    90.00000    90.00000    90.00000  Step:        1300  Bead:      15 positions{angstrom}  cell{angstrom}
       E -1.03517e+01  2.28600e+01 -8.96694e+01
       E  5.74194e+01 -2.27654e+01 -4.14930e+01
       E -8.53724e+00 -7.48198e+00  1.92329e+01
3
# CELL(abcABC): 1322.94304  1322.94304  1322.94304    90.00000    90.00000    90.00000  Step:        1400  Bead:      15 positions{angstrom}  cell{angstrom}
       E -5.84141e+00  6.24749e+01 -9.31703e+01
       E  4.18039e+00 -2.56473e+01 -5.36907e+01
       E  1.37414e+01  1.56507e+01  1.32731e+01
3
# CELL(abcABC): 1322.94304  1322.94304  1322.94304    90.00000    90.00000    90.00000  Step:        1500  Bead:      15 positions{angstrom}  cell{angstrom}
       E  1.05222e+01  3.91712e+01 -5.16847e+01
       E -1.02779e+00 -1.64477e+01 -2.74916e+01
       E -7.93804e+00  1.45104e+01  4.72599e+01
3
# CELL(abcABC): 1322.94304  1322.94304  1322.94304    90.00000    90.00000    90.00000  Step:        1600  Bead:      15 positions{angstrom}  cell{angstrom}
       E -2.14297e+01  6.15369e+01 -4.56183e+01
       E  1.99683e+00  5.22888e+01 -3.30148e+01
       E -4.66681e+01  2.94630e+01  5.04389e+01
3
# CELL(abcABC): 1322.94304  1322.94304  1322.94304    90.00000    90.00000    90.00000  Step:        1700  Bead:      15 positions{angstrom}  cell{angstrom}
       E  1.36922e+01  1.67854e+01  3.10381e+01
       E  8.79242e-01  5.97165e+01  8.49179e+00
       E -4.09460e+01  4.88315e+01  3.82963e+01
3
# CELL(abcABC): 1322.94304  1322.94304  1322.94304    90.00000    90.00000    90.00000  Step:        1800  Bead:      15 positions{angstrom}  cell{angstrom}
       E  1.20721e+01  3.99980e+01  1.53110e+00
       E -5.50710e+01  4.14874e+01  2.05183e+01
       E -9.98751e+01  8.62171e+01  3.36648e+01
3
# CELL(abcABC): 1322.94304  1322.94304  1322.94304    90.00000    90.00000    90.00000  Step:        1900  Bead:      15 positions{angstrom}  cell{angstrom}
       E  9.85075e+00  3.27781e+01  3.84187e+01
       E -4.30628e+01  2.01373e+01 -3.13334e+00
       E -3.26273e+01  5.08726e+01  5.08041e+01
3
# CELL(abcABC): 1322.94304  1322.94304  1322.94304    90.00000    90.00000    90.00000  Step:        2000  Bead:      15 positions{angstrom}  cell{angstrom}
       E -3.85504e+01 -1.57276e+01  3.95161e+01
       E -5.49505e+01  5.38735e+01  3.79606e+00
       E -9.75752e+01  8.63240e+01  3.97709e+01
3
# CELL(abcABC): 1322.94304  1322.94304  1322.94304    90.00000    90.00000    90.00000  Step:        2100  Bead:      15 positions{angstrom}  cell{angstrom}
       E -2.86600e+01 -4.24318e+01  8.52788e+01
       E -3.87999e+01  3.77624e+01 -6.52484e+00
       E -6.99129e+01  9.03603e+01  1.43528e+01
3
# CELL(abcABC): 1322.94304  1322.94304  1322.94304    90.00000    90.00000    90.00000  Step:        2200  Bead:      15 positions{angstrom}  cell{angstrom}
       E -2.64500e+01 -4.84063e+01  6.59005e+01
       E -2.35405e+01 -3.17978e+01 -2.25862e+01
       E -5.84967e+01  6.26858e+01  3.73182e-01
3
# CELL(abcABC): 1322.94304  1322.94304  1322.94304    90.00000    90.00000    90.00000  Step:        2300  Bead:      15 positions{angstrom}  cell{angstrom}
       E -4.63190e+01 -8.16852e+01  6.89692e+01
       E -9.48855e-01 -2.25051e+01  7.77553e+00
       E -3.15432e+01  5.03152e+01  4.52933e+01
3
# CELL(abcABC): 1322.94304  1322.94304  1322.94304    90.00000    90.00000    90.00000  Step:        2400  Bead:      15 positions{angstrom}  cell{angstrom}
       E -4.04286e+01 -5.28466e+01  2.20199e+01
       E  4.93431e-01 -1.02973e+01 -1.39897e+01
       E -1.99580e+01  4.73177e+01  1.98502e+01
3
# CELL(abcABC): 1322.94304  1322.94304  1322.94304    90.00000    90.00000    90.00000  Step:        2500  Bead:      15 positions{angstrom}  cell{angstrom}
       E -3.52249e+01 -2.36818e+01  3.36077e+01
       E  2.04151e+01 -4.84291e+01 -5.32746e+01
       E  2.27277e+01  1.56184e+01  1.93396e+01
3
# CELL(abcABC): 1322.94304  1322.94304  1322.94304    90.00000    90.00000    90.00000  Step:        2600  Bead:      15 positions{angstrom}  cell{angstrom}
       E -2.44106e+01 -1.87123e+01  3.75808e+01
       E -5.40889e+01 -4.98340e+01 -5.28431e+01
       E -7.43837e-02 -1.44775e+01  3.27506e+01
3
# CELL(abcABC): 1322.94304  1322.94304  1322.94304    90.00000    90.00000    90.00000  Step:        2700  Bead:      15 positions{angstrom}  cell{angstrom}
       E -4.04936e+01  3.17324e+01  1.87024e+01
       E -1.87083e+01 -2.33939e+01 -2.79599e+01
       E  5.23408e+01 -7.64712e+00  2.67938e+01
3
# CELL(abcABC): 1322.94304  1322.94304  1322.94304    90.00000    90.00000    90.00000  Step:        2800  Bead:      15 positions{angstrom}  cell{angstrom}
       E -2.05365e+01 -2.21445e+01  3.23465e+01
       E -5.57829e+01 -6.00910e+01 -2.51319e+01
       E  4.56195e+01 -1.16599e+01  8.29479e+00
3
# CELL(abcABC): 1322.94304  1322.94304  1322.94304    90.00000    90.00000    90.00000  Step:        2900  Bead:      15 positions{angstrom}  cell{angstrom}
       E -7.16793e+01 -1.76967e+01  3.95391e+01
       E -5.86758e+01 -7.46053e+01 -3.09026e+01
       E -7.03594e+00  1.02692e+01  1.83800e+01
3
# CELL(abcABC): 1322.94304  1322.94304  1322.94304    90.00000    90.00000    90.00000  Step:        3000  Bead:      15 positions{angstrom}  cell{angstrom}
       E -5.25278e+01 -2.18241e+01  6.40503e+01
       E -5.43297e+01 -8.82118e+01  2.37123e+01
       E -6.41569e+00  4.07629e+01  9.75844e+00
3
# CELL(abcABC): 1322.94304  1322.94304  1322.94304    90.00000    90.00000    90.00000  Step:        3100  Bead:      15 positions{angstrom}  cell{angstrom}
       E -4.32477e+01 -2.14359e+01  1.15397e+01
       E -9.02055e+01 -4.72852e+01  1.73448e+01
       E  3.00199e+01  6.72643e+01  2.82172e+01
3
# CELL(abcABC): 1322.94304  1322.94304  1322.94304    90.00000    90.00000    90.00000  Step:        3200  Bead:      15 positions{angstrom}  cell{angstrom}
       E -2.46956e+01  3.91142e-01 -1.04798e+01
       E -1.10815e+02 -3.61538e+01  5.14419e+01
       E  5.92709e+01  7.56325e+01  4.84153e+01
3
# CELL(abcABC): 1322.94304  1322.94304  1322.94304    90.00000    90.00000    90.00000  Step:        3300  Bead:      15 positions{angstrom}  cell{angstrom}
       E -2.97730e+01 -2.42772e+01 -3.17838e+00
       E -7.22414e+01 -3.38827e+01  7.29278e+01
       E  2.85452e+01  9.27709e+01  5.30771e+01
3
# CELL(abcABC): 1322.94304  1322.94304  1322.94304    90.00000    90.00000    90.00000  Step:        3400  Bead:      15 positions{angstrom}  cell{angstrom}
       E -8.55367e+01 -1.31465e+01  7.10783e+00
       E -8.57237e+01 -4.71904e+01  7.24664e+01
       E  3.57750e+01  9.71017e+01  4.70331e+01
3
# CELL(abcABC): 1322.94304  1322.94304  1322.94304    90.00000    90.00000    90.00000  Step:        3500  Bead:      15 positions{angstrom}  cell{angstrom}
       E -7.41835e+01  3.54472e+01  3.69017e+01
       E -4.05319e+01 -2.20635e+01  2.03881e+01
       E  1.24778e+01  7.09425e+01  4.96910e+01
3
# CELL(abcABC): 1322.94304  1322.94304  1322.94304    90.00000    90.00000    90.00000  Step:        3600  Bead:      15 positions{angstrom}  cell{angstrom}
       E -6.54753e+01  8.58507e+00  3.91077e+01
       E  2.12125e+00 -2.72383e+00  1.12710e+01
       E  1.59431e+01  7.07594e+01  1.61518e+01
3
# CELL(abcABC): 1322.94304  1322.94304  1322.94304    90.00000    90.00000    90.00000  Step:        3700  Bead:      15 positions{angstrom}  cell{angstrom}
       E -5.44800e+01 -1.46904e+01 -2.10485e+00
       E -2.87778e+01 -1.74300e+01  2.00614e+01
       E -4.28789e+01  4.66506e+01 -2.32328e+00
3
# CELL(abcABC): 1322.94304  1322.94304  1322.94304    90.00000    90.00000    90.00000  Step:        3800  Bead:      15 positions{angstrom}  cell{angstrom}
       E -8.16010e+01 -2.75982e+01 -3.61290e+01
       E -2.99365e+01 -4.56924e+01 -1.46546e+01
       E -7.05076e+01  2.37287e+01 -2.68533e+01
3
# CELL(abcABC): 1322.94304  1322.94304  1322.94304    90.00000    90.00000    90.00000  Step:        3900  Bead:      15 positions{angstrom}  cell{angstrom}
       E -1.09162e+02  2.04840e+01 -2.62407e+01
       E -2.40013e+01 -2.61403e+01 -7.90436e+00
       E -3.76758e+01  2.06120e+01 -9.36424e+00
3
# CELL(abcABC): 1322.94304  1322.94304  1322.94304    90.00000    90.00000    90.00000  Step:        4000  Bead:      15 positions{angstrom}  cell{angstrom}
       E -1.10468e+02  4.49948e+01 -7.18969e+01
       E -3.17548e+01 -6.81411e-01  4.44340e+01
       E -1.83410e+01  3.01187e+01  5.36604e+00
3
# CELL(abcABC): 1322.94304  1322.94304  1322.94304    90.00000    90.00000    90.00000  Step:        4100  Bead:      15 positions{angstrom}  cell{angstrom}
       E -7.48575e+01  6.53317e+01 -6.10799e+01
       E -4.87081e+01  3.08691e+01  4.62496e+01
       E -1.11151e+01 -2.43716e+01  3.45144e+01
3
# CELL(abcABC): 1322.94304  1322.94304  1322.94304    90.00000    90.00000    90.00000  Step:        4200  Bead:      15 positions{angstrom}  cell{angstrom}
       E -5.57702e+01  4.29603e+01 -6.02140e+01
       E -3.14788e+01  3.71396e+01  3.52818e+01
       E  3.60743e+01 -2.52229e+01  3.97117e+01
3
# CELL(abcABC): 1322.94304  1322.94304  1322.94304    90.00000    90.00000    90.00000  Step:        4300  Bead:      15 positions{angstrom}  cell{angstrom}
       E -9.44751e+01  7.06495e+01 -5.88957e+01
       E -4.79614e+01  5.34176e+01  6.03376e+01
       E -7.83429e+00 -3.06711e-01  7.04706e+01
3
# CELL(abcABC): 1322.94304  1322.94304  1322.94304    90.00000    90.00000    90.00000  Step:        4400  Bead:      15 positions{angstrom}  cell{angstrom}
       E -4.14035e+01  1.59134e+01 -7.46533e+01
       E -3.27229e+01  4.79112e+01  1.45362e+01
       E -1.76805e+01 -2.83545e+01 -1.88255e+01
3
# CELL(abcABC): 1322.94304  1322.94304  1322.94304    90.00000    90.00000    90.00000  Step:        4500  Bead:      15 positions{angstrom}  cell{angstrom}
       E -7.07375e+01  2.73799e+01 -8.16691e+01
       E -7.01230e+01  8.24644e+01  4.29057e+00
       E  7.87772e+00 -1.84729e+01  1.89816e+01
3
# CELL(abcABC): 1322.94304  1322.94304  1322.94304    90.00000    90.00000    90.00000  Step:        4600  Bead:      15 positions{angstrom}  cell{angstrom}
       E -2.29782e+01  6.86837e+00 -9.55009e+01
       E -4.08857e+01  7.97475e+01 -6.21494e+00
       E  1.59755e+01 -1.55667e+01  2.16048e+00
3
# CELL(abcABC): 1322.94304  1322.94304  1322.94304    90.00000    90.00000    90.00000  Step:        4700  Bead:      15 positions{angstrom}  cell{angstrom}
       E -2.29991e+01  4.57230e+01 -4.87615e+01
       E -4.44148e+01  6.47712e+01 -3.17686e+01
       E  3.86243e+01 -1.59987e+01 -2.87491e+00
3
# CELL(abcABC): 1322.94304  1322.94304  1322.94304    90.00000    90.00000    90.00000  Step:        4800  Bead:      15 positions{angstrom}  cell{angstrom}
       E -2.33578e+01  3.01154e+01 -3.09873e+01
       E -6.12692e+01  3.61840e+01 -2.57473e+01
       E  4.40610e+01 -4.68083e+00  1.84362e+01
3
# CELL(abcABC): 1322.94304  1322.94304  1322.94304    90.00000    90.00000    90.00000  Step:        4900  Bead:      15 positions{angstrom}  cell{angstrom}
       E  1.99334e+01  3.61516e+01  1.41385e+01
       E -3.87628e+01  2.49662e+01 -1.23930e+01
       E  2.33217e+01  1.06923e+01 -3.93603e-01
3
# CELL(abcABC): 1322.94304  1322.94304  1322.94304    90.00000    90.00000    90.00000  Step:        5000  Bead:      15 positions{angstrom}  cell{angstrom}
       E -5.81932e-01 -1.38515e+00  2.02763e+01
       E -3.81327e+01 -7.03567e+00 -6.34810e+01
       E  2.08953e+01 -2.56664e+01 -7.34257e+00
3
# CELL(abcABC): 1322.94304  1322.94304  1322.94304    90.00000    90.00000    90.00000  Step:        5100  Bead:      15 positions{angstrom}  cell{angstrom}
       E -2.43209e+01  2.75650e+01  2.00575e+01
       E -3.50931e+01  1.97883e+01 -4.11074e+01
       E -1.53400e+01 -8.73625e+00 -3.93653e+01
3
# CELL(abcABC): 1322.94304  1322.94304  1322.94304    90.00000    90.00000    90.00000  Step:        5200  Bead:      15 positions{angstrom}  cell{angstrom}
       E  3.86670e+00  2.26065e+01  3.04375e+01
       E -3.17272e+01  5.73472e+00 -2.35865e+01
       E -1.45807e+01  4.79911e+01  1.21988e+01
3
# CELL(abcABC): 1322.94304  1322.94304  1322.94304    90.00000    90.00000    90.00000  Step:        5300  Bead:      15 positions{angstrom}  cell{angstrom}
       E  2.16525e+01  1.09874e+01  2.67070e+01
       E -4.07911e+01  4.24378e+01  5.89072e+00
       E -3.23729e+01  3.88430e+01  5.35377e+01
3
# CELL(abcABC): 1322.94304  1322.94304  1322.94304    90.00000    90.00000    90.00000  Step:        5400  Bead:      15 positions{angstrom}  cell{angstrom}
       E  1.43480e+01 -2.30293e+01  2.57490e+01
       E -1.78253e+01  2.10764e+01 -1.15229e+01
       E -3.99136e+01  3.40806e+01  5.71163e+01
3
# CELL(abcABC): 1322.94304  1322.94304  1322.94304    90.00000    90.00000    90.00000  Step:        5500  Bead:      15 positions{angstrom}  cell{angstrom}
       E  1.59383e+01  1.74620e+01  2.24044e+01
       E -3.35780e+01 -2.50315e+00 -1.64075e+01
       E -4.00824e+01 -8.82034e+00  3.33117e+01
3
# CELL(abcABC): 1322.94304  1322.94304  1322.94304    90.00000    90.00000    90.00000  Step:        5600  Bead:      15 positions{angstrom}  cell{angstrom}
       E -4.22440e+00  8.17860e+00 -2.23953e+00
       E -5.37811e+01 -1.18933e+01 -1.87661e+01
       E -6.34172e+01 -1.60118e+01  2.59571e+01
3
# CELL(abcABC): 1322.94304  1322.94304  1322.94304    90.00000    90.00000    90.00000  Step:        5700  Bead:      15 positions{angstrom}  cell{angstrom}
       E  1.47774e+01 -1.74955e+01 -4.63988e+00
       E -4.03186e+01  4.33440e+01  4.88680e+00
       E -3.93830e+01  8.60984e+00  2.59108e+01
3
# CELL(abcABC): 1322.94304  1322.94304  1322.94304    90.00000    90.00000    90.00000  Step:        5800  Bead:      15 positions{angstrom}  cell{angstrom}
       E -7.13364e+00 -7.38508e+00 -1.88745e+01
       E -4.81785e+01  4.20621e+01 -3.82104e+01
       E -2.47545e+01  1.50219e+01 -1.36015e+01
3
# CELL(abcABC): 1322.94304  1322.94304  1322.94304    90.00000    90.00000    90.00000  Step:        5900  Bead:      15 positions{angstrom}  cell{angstrom}
       E  2.11879e+01  1.07900e+01 -1.45890e+01
       E -2.16190e+01  1.84486e+01 -1.24554e+01
       E -1.04573e+01 -2.10802e+01 -5.92710e-01
3
# CELL(abcABC): 1322.94304  1322.94304  1322.94304    90.00000    90.00000    90.00000  Step:        6000  Bead:      15 positions{angstrom}  cell{angstrom}
       E  4.29976e+01 -3.82609e+00  8.30344e+00
       E -1.38474e+01 -6.87353e+00  8.83449e+00
       E -3.51211e+01 -7.90202e+00  8.39506e+00
3
# CELL(abcABC): 1322.94304  1322.94304  1322.94304    90.00000    90.00000    90.00000  Step:        6100  Bead:      15 positions{angstrom}  cell{angstrom}
       E -2.04933e+01 -1.06873e+01 -3.21706e+01
       E  3.92315e+01 -3.37963e-01  3.47573e+01
       E -3.08655e+00 -1.43235e+01 -4.60264e+00
3
# CELL(abcABC): 1322.94304  1322.94304  1322.94304    90.00000    90.00000    90.00000  Step:        6200  Bead:      15 positions{angstrom}  cell{angstrom}
       E  3.17561e+00 -2.28795e+01 -6.31469e+01
       E  6.79088e+01  3.57114e+01  2.67458e+00
       E  2.34005e+01 -1.21513e+01  7.80612e+00
3
# CELL(abcABC): 1322.94304  1322.94304  1322.94304    90.00000    90.00000    90.00000  Step:        6300  Bead:      15 positions{angstrom}  cell{angstrom}
       E -1.13297e+01 -6.13915e+01 -1.07855e+02
       E  7.84002e+01  1.69382e+01 -1.72498e+01
       E  3.78224e+00 -1.33833e+01  6.75201e+00
3
# CELL(abcABC): 1322.94304  1322.94304  1322.94304    90.00000    90.00000    90.00000  Step:        6400  Bead:      15 positions{angstrom}  cell{angstrom}
       E -9.05601e+00 -6.97001e+01 -7.95374e+01
       E  6.75208e+01  4.57992e+01 -2.06154e+01
       E -8.40280e+00  1.87345e+01 -3.99020e+00
3
# CELL(abcABC): 1322.94304  1322.94304  1322.94304    90.00000    90.00000    90.00000  Step:        6500  Bead:      15 positions{angstrom}  cell{angstrom}
       E  7.39013e+00 -7.63874e+01 -9.83051e+01
       E -5.90972e+00 -9.47166e+00 -1.89638e+01
       E  2.34636e+01 -2.65707e+01 -9.26092e+00
3
# CELL(abcABC): 1322.94304  1322.94304  1322.94304    90.00000    90.00000    90.00000  Step:        6600  Bead:      15 positions{angstrom}  cell{angstrom}
       E  2.69169e+00 -5.18472e+01 -8.53055e+01
       E  2.38741e+01 -3.62120e+01 -1.88575e+01
       E  3.29898e+01 -2.38828e+01  6.24205e-01
3
# CELL(abcABC): 1322.94304  1322.94304  1322.94304    90.00000    90.00000    90.00000  Step:        6700  Bead:      15 positions{angstrom}  cell{angstrom}
       E  1.22993e+01 -8.69036e+01 -6.57617e+01
       E  1.45831e+01  6.55151e+00 -1.70895e+01
       E  1.43247e+00 -9.52997e+00  5.76435e+00
3
# CELL(abcABC): 1322.94304  1322.94304  1322.94304    90.00000    90.00000    90.00000  Step:        6800  Bead:      15 positions{angstrom}  cell{angstrom}
       E -1.37247e+01 -1.16319e+02 -3.75494e+01
       E  4.36865e+01 -3.64317e+00 -1.40238e+00
       E  3.07892e+01  2.71039e+00  1.49484e+01
3
# CELL(abcABC): 1322.94304  1322.94304  1322.94304    90.00000    90.00000    90.00000  Step:        6900  Bead:      15 positions{angstrom}  cell{angstrom}
       E -1.07364e+00 -7.67557e+01 -3.50940e+01
       E  2.53199e+01 -2.78795e+01 -5.32637e+00
       E -1.04152e+01  4.05380e+01  2.87379e+01
3
# CELL(abcABC): 1322.94304  1322.94304  1322.94304    90.00000    90.00000    90.00000  Step:        7000  Bead:      15 positions{angstrom}  cell{angstrom}
       E  5.12471e+01 -9.57852e+01 -2.70370e+01
       E -6.69915e+00 -3.13448e+01  3.39354e+01
       E -3.40461e+00  5.40171e+01  7.59621e+00
3
# CELL(abcABC): 1322.94304  1322.94304  1322.94304    90.00000    90.00000    90.00000  Step:        7100  Bead:      15 positions{angstrom}  cell{angstrom}
       E  2.48076e+01 -1.99249e+01 -7.95755e-01
       E -2.51551e+01  1.78202e+00  1.93210e+01
       E  5.26706e+01  6.01133e+01 -1.78596e+01
3
# CELL(abcABC): 1322.94304  1322.94304  1322.94304    90.00000    90.00000    90.00000  Step:        7200  Bead:      15 positions{angstrom}  cell{angstrom}
       E  4.73893e+01 -5.99724e+00 -1.80414e+01
       E -4.29528e+01  2.18531e+00  2.68541e+01
       E  4.14052e+01  2.00535e+01 -2.20954e+01
3
# CELL(abcABC): 1322.94304  1322.94304  1322.94304    90.00000    90.00000    90.00000  Step:        7300  Bead:      15 positions{angstrom}  cell{angstrom}
       E  2.26356e+01 -4.33166e+01 -4.16102e+01
       E -2.78381e+01  3.25834e+01  3.32080e+01
       E  2.44639e+01  2.50142e+01 -1.96681e+01
3
# CELL(abcABC): 1322.94304  1322.94304  1322.94304    90.00000    90.00000    90.00000  Step:        7400  Bead:      15 positions{angstrom}  cell{angstrom}
       E  4.43619e+01 -4.32921e+01 -5.76825e+01
       E -4.21071e+01  1.47501e+01 -2.46008e+00
       E  3.86009e+01  4.36166e+01 -1.43503e+01
3
# CELL(abcABC): 1322.94304  1322.94304  1322.94304    90.00000    90.00000    90.00000  Step:        7500  Bead:      15 positions{angstrom}  cell{angstrom}
       E  1.39658e+01 -7.67049e+01 -6.80787e+01
       E -5.00552e+01 -1.25126e+01 -7.10702e-01
       E  6.14556e+01  3.12854e+01 -6.79859e+00
3
# CELL(abcABC): 1322.94304  1322.94304  1322.94304    90.00000    90.00000    90.00000  Step:        7600  Bead:      15 positions{angstrom}  cell{angstrom}
       E  2.82488e+01 -6.29561e+01 -4.08268e+01
       E -5.72355e+00 -3.79893e+01  3.69178e+00
       E  3.17739e+01  3.04934e+01 -3.18914e+01
3
# CELL(abcABC): 1322.94304  1322.94304  1322.94304    90.00000    90.00000    90.00000  Step:        7700  Bead:      15 positions{angstrom}  cell{angstrom}
       E  1.91749e+01 -8.45162e+01 -1.70787e+01
       E -1.36545e+01 -5.77829e+01 -4.50029e+01
       E  4.98971e+01  6.15718e+01 -4.04254e+01
3
# CELL(abcABC): 1322.94304  1322.94304  1322.94304    90.00000    90.00000    90.00000  Step:        7800  Bead:      15 positions{angstrom}  cell{angstrom}
       E  1.13531e+01 -7.03507e+01 -4.46664e+01
       E -4.45407e+01 -5.26525e+01 -4.03092e+01
       E  3.99903e+01  4.75530e+01 -5.26138e+01
3
# CELL(abcABC): 1322.94304  1322.94304  1322.94304    90.00000    90.00000    90.00000  Step:        7900  Bead:      15 positions{angstrom}  cell{angstrom}
       E  3.16385e+01 -2.70191e+01 -2.81099e+01
       E  3.23872e-01 -1.28335e+01 -1.43460e+01
       E  1.87076e+01  1.18724e+01 -2.85488e+01
3
# CELL(abcABC): 1322.94304  1322.94304  1322.94304    90.00000    90.00000    90.00000  Step:        8000  Bead:      15 positions{angstrom}  cell{angstrom}
       E  1.02433e+01 -1.76224e+01 -4.38951e+01
       E -4.45902e+01  2.69074e+01 -2.91041e+01
       E  1.31768e+01 -1.23501e+01 -2.54579e+01
3
# CELL(abcABC): 1322.94304  1322.94304  1322.94304    90.00000    90.00000    90.00000  Step:        8100  Bead:      15 positions{angstrom}  cell{angstrom}
       E -4.48581e+00  2.09061e+01 -4.46407e+01
       E -1.39889e+01  2.54052e+01 -1.62225e+01
       E  1.94294e+01  4.94109e+00 -1.72731e+00
3
# CELL(abcABC): 1322.94304  1322.94304  1322.94304    90.00000    90.00000    90.00000  Step:        8200  Bead:      15 positions{angstrom}  cell{angstrom}
       E  3.97633e+01  3.64201e+01 -5.43983e+01
       E -2.43208e+01 -8.87363e+00 -1.92278e+01
       E  3.60037e+00 -1.51374e+01  3.40370e+01
3
# CELL(abcABC): 1322.94304  1322.94304  1322.94304    90.00000    90.00000    90.00000  Step:        8300  Bead:      15 positions{angstrom}  cell{angstrom}
       E  2.59724e+01  3.49453e+01 -3.47180e+01
       E -1.54310e+01  3.03847e+01 -1.04092e+01
       E  3.03283e+01 -6.62735e+01  6.53144e+01
3
# CELL(abcABC): 1322.94304  1322.94304  1322.94304    90.00000    90.00000    90.00000  Step:        8400  Bead:      15 positions{angstrom}  cell{angstrom}
       E -1.21534e+01  2.50086e+01 -2.64994e+01
       E  1.10989e+01  4.17016e+01 -1.29843e+01
       E -5.42416e+00 -3.89581e+01  5.68987e+01
3
# CELL(abcABC): 1322.94304  1322.94304  1322.94304    90.00000    90.00000    90.00000  Step:        8500  Bead:      15 positions{angstrom}  cell{angstrom}
       E  7.08479e+00 -9.89299e+00 -9.32404e+00
       E  4.87891e+01  9.42080e+00 -2.78173e+01
       E  2.45806e+01 -3.93603e+01  4.39061e+01
3
# CELL(abcABC): 1322.94304  1322.94304  1322.94304    90.00000    90.00000    90.00000  Step:        8600  Bead:      15 positions{angstrom}  cell{angstrom}
       E -1.53459e+00 -5.68885e+00 -1.00417e+01
       E  4.07428e+01  1.20301e+01 -2.55264e+01
       E  2.45361e+01  3.60047e-01  2.17512e+01
3
# CELL(abcABC): 1322.94304  1322.94304  1322.94304    90.00000    90.00000    90.00000  Step:        8700  Bead:      15 positions{angstrom}  cell{angstrom}
       E -2.12602e+01 -1.60601e+01 -1.91602e+00
       E  3.42158e+01  2.11782e+01 -3.91939e+01
       E  1.42149e+01 -3.11863e+01  4.94392e+01
3
# CELL(abcABC): 1322.94304  1322.94304  1322.94304    90.00000    90.00000    90.00000  Step:        8800  Bead:      15 positions{angstrom}  cell{angstrom}
       E -4.16500e+01  3.53522e+01  2.54006e+01
       E  2.95071e+01 -1.04253e+01 -1.48870e+01
       E  3.40011e+01 -7.30838e+01  4.76765e+01
3
# CELL(abcABC): 1322.94304  1322.94304  1322.94304    90.00000    90.00000    90.00000  Step:        8900  Bead:      15 positions{angstrom}  cell{angstrom}
       E -5.53114e+01  4.64947e+01  5.65884e+01
       E -1.67691e+01  2.80007e+00  2.92982e+01
       E  1.55307e+01 -4.17565e+01  5.13856e+01
3
# CELL(abcABC): 1322.94304  1322.94304  1322.94304    90.00000    90.00000    90.00000  Step:        9000  Bead:      15 positions{angstrom}  cell{angstrom}
       E -1.50617e+01  4.19282e+01  3.76248e+01
       E  2.24527e+00 -8.17682e+00  5.32520e+01
       E  4.90037e+01 -2.45835e+01  3.85477e+00
3
# CELL(abcABC): 1322.94304  1322.94304  1322.94304    90.00000    90.00000    90.00000  Step:        9100  Bead:      15 positions{angstrom}  cell{angstrom}
       E  4.80499e+00  7.08037e-01  2.55409e+01
       E -1.54279e+01  3.12723e+00  7.81187e+01
       E  3.99242e+01 -1.05457e+01  2.78947e+01
3
# CELL(abcABC): 1322.94304  1322.94304  1322.94304    90.00000    90.00000    90.00000  Step:        9200  Bead:      15 positions{angstrom}  cell{angstrom}
       E  4.65407e+01  1.97908e+01  2.48571e+01
       E -2.14026e+01  1.90338e+01  5.72362e+01
       E  3.26844e+01 -6.81734e+01  8.56677e+00
3
# CELL(abcABC): 1322.94304  1322.94304  1322.94304    90.00000    90.00000    90.00000  Step:        9300  Bead:      15 positions{angstrom}  cell{angstrom}
       E  1.08689e+01  3.05906e+01  9.79456e+00
       E -4.96039e+01 -2.58473e+01  1.61825e+01
       E  4.55973e+00 -6.91681e+01 -1.59984e+01
3
# CELL(abcABC): 1322.94304  1322.94304  1322.94304    90.00000    90.00000    90.00000  Step:        9400  Bead:      15 positions{angstrom}  cell{angstrom}
       E  1.43044e+01  5.70995e+01 -3.25379e+01
       E -4.77724e+01 -4.19781e+01  1.66640e+01
       E  1.98248e+01 -3.49883e+01 -1.43019e+01
3
# CELL(abcABC): 1322.94304  1322.94304  1322.94304    90.00000    90.00000    90.00000  Step:        9500  Bead:      15 positions{angstrom}  cell{angstrom}
       E  1.61835e+01  5.03438e+01 -6.38901e+01
       E -1.44692e+01 -4.44560e+01  2.30411e+01
       E  2.77856e+01 -9.51636e+00  3.58837e+01
3
# CELL(abcABC): 1322.94304  1322.94304  1322.94304    90.00000    90.00000    90.00000  Step:        9600  Bead:      15 positions{angstrom}  cell{angstrom}
       E  1.57277e+01  1.30393e+01 -4.82902e+01
       E  2.22719e+01 -4.83096e+01  2.48002e+01
       E  1.67602e+01 -1.75004e+01  1.52645e+01
3
# CELL(abcABC): 1322.94304  1322.94304  1322.94304    90.00000    90.00000    90.00000  Step:        9700  Bead:      15 positions{angstrom}  cell{angstrom}
       E  2.22090e+01 -5.21595e+01 -1.97650e+01
       E  4.73321e+01 -8.27761e+01  3.24958e+01
       E  1.32382e+01  1.33908e+01  1.87575e+01
3
# CELL(abcABC): 1322.94304  1322.94304  1322.94304    90.00000    90.00000    90.00000  Step:        9800  Bead:      15 positions{angstrom}  cell{angstrom}
       E -3.85181e+01 -5.47768e+01 -4.13227e+01
       E  2.51472e+01 -8.96318e+01 -7.13739e+00
       E  1.42911e+01 -2.12818e+01  2.12782e+01
3