3
# CELL(abcABC): 1322.94304  1322.94304  1322.94304    90.00000    90.00000    90.00000  Step:           0  Bead:      12 positions{angstrom}  cell{angstrom}
       E  0.00000e+00  0.00000e+00  0.00000e+00
       E  0.00000e+00  0.00000e+00  0.00000e+00
       E  0.00000e+00  0.00000e+00  0.00000e+00
3
# CELL(abcABC): 1322.94304  1322.94304  1322.94304    90.00000    90.00000    90.00000  Step:         100  Bead:      12 positions{angstrom}  cell{angstrom}
       E  1.62472e+00 -6.08039e+00  9.12518e+00
       E  1.11073e+01  9.46102e+00 -1.18041e+01
       E -2.62009e+01  1.13331e+01 -2.95325e+01
3
# CELL(abcABC): 1322.94304  1322.94304  1322.94304    90.00000    90.00000    90.00000  Step:         200  Bead:      12 positions{angstrom}  cell{angstrom}
       E -1.13494e+01 -2.08056e+01 -1.35075e+01
       E  2.72379e+01 -2.24305e+01 -2.94542e+01
       E -3.33800e+01 -2.78464e+00  2.70030e+00
3
# CELL(abcABC): 1322.94304  1322.94304  1322.94304    90.00000    90.00000    90.00000  Step:         300  Bead:      12 positions{angstrom}  cell{angstrom}
       E -2.40847e+01  2.14130e+01 -1.69341e+01
       E  1.76515e+01  1.16458e+01 -2.61965e+01
       E -3.46418e+01  3.85379e+01  3.66679e+01
3
# CELL(abcABC): 1322.94304  1322.94304  1322.94304    90.00000    90.00000    90.00000  Step:         400  Bead:      12 positions{angstrom}  cell{angstrom}
       E -1.77302e+01  1.07530e+01  8.38637e+00
       E  2.64553e+01  6.42971e+01 -1.36533e+00
       E -2.22484e+01  1.53688e+01  3.23075e+01
3
# CELL(abcABC): 1322.94304  1322.94304  1322.94304    90.00000    90.00000    90.00000  Step:         500  Bead:      12 positions{angstrom}  cell{angstrom}
       E -9.74285e+00  2.91396e+01 -3.02024e+01
       E  3.16515e+01  4.25832e+01  1.15099e+01
       E  3.50859e+00  3.76978e+01  3.09171e+01
3
# CELL(abcABC): 1322.94304  1322.94304  1322.94304    90.00000    90.00000    90.00000  Step:         600  Bead:      12 positions{angstrom}  cell{angstrom}
       E  9.10094e+00 -5.80686e+00 -5.93488e+01
       E  1.17255e+01 -1.34118e+01  3.15963e+01
       E  1.13928e+01  1.73116e+01  3.94326e+01
3
# CELL(abcABC): 1322.94304  1322.94304  1322.94304    90.00000    90.00000    90.00000  Step:         700  Bead:      12 positions{angstrom}  cell{angstrom}
       E -2.20839e+00  3.84725e+01 -2.45441e+01
       E  8.77837e+00  2.34981e+01  5.17482e+01
       E  1.81882e+01  1.82876e+01  2.44254e+01
3
# CELL(abcABC): 1322.94304  1322.94304  1322.94304    90.00000    90.00000    90.00000  Step:         800  Bead:      12 positions{angstrom}  cell{angstrom}
       E -1.70228e+01  6.53208e+00 -6.35100e+00
       E -1.52091e+01  2.86950e+01 -9.72343e+00
       E -2.10114e+01  2.85183e+01  3.51537e+01
3
# CELL(abcABC): 1322.94304  1322.94304  1322.94304    90.00000    90.00000    90.00000  Step:         900  Bead:      12 positions{angstrom}  cell{angstrom}
       E  2.89616e+01  9.31596e+00 -6.83168e+00
       E  1.22145e+01  3.57235e+01 -2.41426e+01
       E -3.56324e+01  4.68080e-02  6.77022e+01
3
# CELL(abcABC): 1322.94304  1322.94304  1322.94304    90.00000    90.00000    90.00000  Step:        1000  Bead:      12 positions{angstrom}  cell{angstrom}
       E  1.84401e+01  8.04409e+00 -6.06417e+01
       E  2.10356e+01 -2.22940e+01 -4.79721e+01
       E -3.37718e+01  1.81612e+00  9.70575e+01
3
# CELL(abcABC): 1322.94304  1322.94304  1322.94304    90.00000    90.00000    90.00000  Step:        1100  Bead:      12 positions{angstrom}  cell{angstrom}
       E  2.18540e+01 -5.22019e+00 -8.54087e+01
       E  4.93058e+00 -3.92713e+01 -4.76077e+01
       E -1.30595e+01  3.25431e+01  6.18070e+01
3
# CELL(abcABC): 1322.94304  1322.94304  1322.94304    90.00000    90.00000    90.00000  Step:        1200  Bead:      12 positions{angstrom}  cell{angstrom}
       E  3.33598e-01  1.06356e+01 -9.79640e+01
       E  2.46929e+01 -1.06719e+01 -4.98183e+01
       E -7.99902e+00  3.41858e+01  5.51840e+01
3
# CELL(abcABC): 1322.94304  1322.94304  1322.94304    90.00000    90.00000    90.00000  Step:        1300  Bead:      12 positions{angstrom}  cell{angstrom}
       E -1.24083e+01  1.10172e+01 -8.63747e+01
       E  2.98883e+01 -1.85675e+01 -6.18101e+01
       E -1.47102e+01  4.03672e+01  4.39901e+01
3
# CELL(abcABC): 1322.94304  1322.94304  1322.94304    90.00000    90.00000    90.00000  Step:        1400  Bead:      12 positions{angstrom}  cell{angstrom}
       E  2.36997e+01  2.05976e+01 -9.88252e+01
       E -7.90768e+00 -2.25425e+01 -5.46559e+01
       E -3.36507e+01  3.93447e+01  1.37684e+01
3
# CELL(abcABC): 1322.94304  1322.94304  1322.94304    90.00000    90.00000    90.00000  Step:        1500  Bead:      12 positions{angstrom}  cell{angstrom}
       E -1.17074e+01  3.35901e+01 -9.90211e+01
       E -1.70933e+01 -2.00933e+01 -2.70728e+01
       E -4.92169e+01  1.61111e+01  1.60677e+01
3
# CELL(abcABC): 1322.94304  1322.94304  1322.94304    90.00000    90.00000    90.00000  Step:        1600  Bead:      12 positions{angstrom}  cell{angstrom}
       E  3.10323e+01  6.52950e+01 -6.32526e+01
       E -2.13856e+01  8.48297e+00 -1.37386e+01
       E -5.26341e+01  5.47635e+01  1.93257e+01
3
# CELL(abcABC): 1322.94304  1322.94304  1322.94304    90.00000    90.00000    90.00000  Step:        1700  Bead:      12 positions{angstrom}  cell{angstrom}
       E  3.02481e+01  1.72121e+01 -1.58115e+00
       E  1.57749e+01  6.48115e+01  6.79914e+00
       E -4.72783e+01  5.11279e+01  2.53832e+01
3
# CELL(abcABC): 1322.94304  1322.94304  1322.94304    90.00000    90.00000    90.00000  Step:        1800  Bead:      12 positions{angstrom}  cell{angstrom}
       E  2.59954e+01  2.10923e+01  2.45171e+01
       E -1.88025e+01  4.11605e+01  1.34009e+01
       E -6.51193e+01  8.03249e+01  6.34938e+01
3
# CELL(abcABC): 1322.94304  1322.94304  1322.94304    90.00000    90.00000    90.00000  Step:        1900  Bead:      12 positions{angstrom}  cell{angstrom}
       E -2.34116e+01 -4.45027e+00  5.34259e+01
       E -6.17353e+01  5.79354e+01  4.23982e+01
       E -7.25190e+01  5.47105e+01  2.69892e+01
3
# CELL(abcABC): 1322.94304  1322.94304  1322.94304    90.00000    90.00000    90.00000  Step:        2000  Bead:      12 positions{angstrom}  cell{angstrom}
       E -2.69156e+01 -1.03376e+01  4.62384e+01
       E -4.87118e+01  4.02819e+01  1.68352e+01
       E -9.53172e+01  6.70074e+01  2.17368e+01
3
# CELL(abcABC): 1322.94304  1322.94304  1322.94304    90.00000    90.00000    90.00000  Step:        2100  Bead:      12 positions{angstrom}  cell{angstrom}
       E -1.79665e+01 -4.89639e+01  7.09951e+01
       E -2.85886e+01  1.79727e+01 -2.76695e+01
       E -8.72066e+01  6.30049e+01  2.12848e+01
3
# CELL(abcABC): 1322.94304  1322.94304  1322.94304    90.00000    90.00000    90.00000  Step:        2200  Bead:      12 positions{angstrom}  cell{angstrom}
       E -4.68609e+01 -4.85820e+01  7.65927e+01
       E  1.82500e+00 -2.02943e+01 -6.10867e+01
       E -4.54335e+01  1.05710e+02 -1.11156e+01
3
# CELL(abcABC): 1322.94304  1322.94304  1322.94304    90.00000    90.00000    90.00000  Step:        2300  Bead:      12 positions{angstrom}  cell{angstrom}
       E -5.03849e+00 -6.85930e+01  6.20465e+01
       E -3.04813e+01 -1.23876e+01 -1.15598e+01
       E -4.22057e+01  5.84454e+01  2.84681e+01
3
# CELL(abcABC): 1322.94304  1322.94304  1322.94304    90.00000    90.00000    90.00000  Step:        2400  Bead:      12 positions{angstrom}  cell{angstrom}
       E -2.81370e+01 -7.68505e+01  2.71187e+01
       E  2.15650e+01 -3.12114e+01 -2.88852e+01
       E -3.19733e+00  4.76249e+01  4.11704e+01
3
# CELL(abcABC): 1322.94304  1322.94304  1322.94304    90.00000    90.00000    90.00000  Step:        2500  Bead:      12 positions{angstrom}  cell{angstrom}
       E -1.04598e+01 -1.31626e+01  3.71280e+01
       E -1.98029e+01 -5.89946e+01 -3.43551e+01
       E  6.64620e+00  4.18584e-01  1.91231e+01
3
# CELL(abcABC): 1322.94304  1322.94304  1322.94304    90.00000    90.00000    90.00000  Step:        2600  Bead:      12 positions{angstrom}  cell{angstrom}
       E -1.73718e+01 -6.26428e+00  1.38719e+01
       E -3.82116e+01 -4.01759e+01 -3.62406e+01
       E  1.16365e+01 -1.11766e+01  4.00779e+01
3
# CELL(abcABC): 1322.94304  1322.94304  1322.94304    90.00000    90.00000    90.00000  Step:        2700  Bead:      12 positions{angstrom}  cell{angstrom}
       E -5.53494e+00 -5.21833e+00  4.13385e+01
       E -6.05543e+01 -3.52855e+01 -4.08332e+01
       E  2.22038e+00 -1.06723e+01  3.51896e+01
3
# CELL(abcABC): 1322.94304  1322.94304  1322.94304    90.00000    90.00000    90.00000  Step:        2800  Bead:      12 positions{angstrom}  cell{angstrom}
       E -3.12263e+01 -3.04838e+01  1.97956e+00
       E -6.75260e+01 -7.39674e+01 -8.18168e+00
       E  2.44417e+01  2.80886e+00  4.60183e+01
3
# CELL(abcABC): 1322.94304  1322.94304  1322.94304    90.00000    90.00000    90.00000  Step:        2900  Bead:      12 positions{angstrom}  cell{angstrom}
       E -4.20190e+01 -3.66288e+01  1.97878e+01
       E -3.22584e+01 -5.49136e+01 -1.07632e+00
       E  4.90675e+01  2.68354e+01  1.21495e+01
3
# CELL(abcABC): 1322.94304  1322.94304  1322.94304    90.00000    90.00000    90.00000  Step:        3000  Bead:      12 positions{angstrom}  cell{angstrom}
       E -6.04201e+01 -4.81644e+01  5.24510e+00
       E -4.76797e+01 -8.08774e+01  1.62624e+01
       E  3.00260e+01  4.49038e+01  8.84358e+00
3
# CELL(abcABC): 1322.94304  1322.94304  1322.94304    90.00000    90.00000    90.00000  Step:        3100  Bead:      12 positions{angstrom}  cell{angstrom}
       E -3.56336e+01 -2.37644e+01  1.25255e+01
       E -7.45491e+01 -5.03103e+01  4.90464e+01
       E  4.64978e+01  4.80090e+01  3.46168e+01
3
# CELL(abcABC): 1322.94304  1322.94304  1322.94304    90.00000    90.00000    90.00000  Step:        3200  Bead:      12 positions{angstrom}  cell{angstrom}
       E -3.91307e+01 -3.76063e+01  1.65268e+01
       E -9.73453e+01 -3.55365e+01  5.70088e+01
       E  5.36463e+01  8.46238e+01  5.05275e+01
3
# CELL(abcABC): 1322.94304  1322.94304  1322.94304    90.00000    90.00000    90.00000  Step:        3300  Bead:      12 positions{angstrom}  cell{angstrom}
       E -4.61114e+01 -4.53249e+01 -1.36867e+01
       E -9.41649e+01 -4.22509e+01  7.59605e+01
       E  1.60249e+01  7.36756e+01  3.44642e+01
3
# CELL(abcABC): 1322.94304  1322.94304  1322.94304    90.00000    90.00000    90.00000  Step:        3400  Bead:      12 positions{angstrom}  cell{angstrom}
       E -4.12248e+01 -6.61132e+00  1.66711e+01
       E -6.56968e+01 -3.46094e+01  7.51823e+01
       E -1.52563e+01  6.48886e+01  4.70862e+01
3
# CELL(abcABC): 1322.94304  1322.94304  1322.94304    90.00000    90.00000    90.00000  Step:        3500  Bead:      12 positions{angstrom}  cell{angstrom}
       E -5.41925e+01 -4.17026e+00  4.04836e+01
       E -2.53237e+01 -4.60594e+00  3.20319e+01
       E  7.12763e+00  8.98993e+01  5.40214e+01
3
# CELL(abcABC): 1322.94304  1322.94304  1322.94304    90.00000    90.00000    90.00000  Step:        3600  Bead:      12 positions{angstrom}  cell{angstrom}
       E -5.40593e+01 -3.98153e+00  1.10418e+01
       E -3.75665e+01 -3.74173e+01  2.43298e-01
       E  3.11586e+01  8.23469e+01  1.14483e+01
3
# CELL(abcABC): 1322.94304  1322.94304  1322.94304    90.00000    90.00000    90.00000  Step:        3700  Bead:      12 positions{angstrom}  cell{angstrom}
       E -6.69662e+01 -1.60910e+01 -2.38963e+00
       E -3.94309e+01 -2.97659e+01  2.86537e+01
       E -1.87654e+01  4.29367e+01 -1.08884e+01
3
# CELL(abcABC): 1322.94304  1322.94304  1322.94304    90.00000    90.00000    90.00000  Step:        3800  Bead:      12 positions{angstrom}  cell{angstrom}
       E -8.11979e+01 -1.67240e+01 -3.50647e+01
       E -2.41890e+01 -3.50539e+01 -1.50907e+01
       E -2.69013e+01  1.91485e+01 -1.66760e+01
3
# CELL(abcABC): 1322.94304  1322.94304  1322.94304    90.00000    90.00000    90.00000  Step:        3900  Bead:      12 positions{angstrom}  cell{angstrom}
       E -1.27678e+02 -1.22971e+01 -1.46684e+01
       E  9.13591e+00 -1.02184e+01 -1.39273e+01
       E -2.45329e+01  3.73741e+01 -2.49415e+01
3
# CELL(abcABC): 1322.94304  1322.94304  1322.94304    90.00000    90.00000    90.00000  Step:        4000  Bead:      12 positions{angstrom}  cell{angstrom}
       E -1.21911e+02  5.32670e+01 -7.85414e+01
       E -3.96653e+01  6.85521e+00  1.98274e+01
       E -2.20156e+01  2.69417e+01  1.15125e+01
3
# CELL(abcABC): 1322.94304  1322.94304  1322.94304    90.00000    90.00000    90.00000  Step:        4100  Bead:      12 positions{angstrom}  cell{angstrom}
       E -1.00350e+02  3.47864e+01 -4.46773e+01
       E -3.92979e+01  3.07177e+01  5.39291e+01
       E  1.42813e+00 -1.66184e+00  6.46956e+01
3
# CELL(abcABC): 1322.94304  1322.94304  1322.94304    90.00000    90.00000    90.00000  Step:        4200  Bead:      12 positions{angstrom}  cell{angstrom}
       E -7.40876e+01  6.24936e+01 -5.86701e+01
       E -4.42610e+01  3.92530e+01  4.27926e+01
       E  1.65686e+01  1.31677e+01  5.10539e+01
3
# CELL(abcABC): 1322.94304  1322.94304  1322.94304    90.00000    90.00000    90.00000  Step:        4300  Bead:      12 positions{angstrom}  cell{angstrom}
       E -7.50321e+01  4.85276e+01 -9.01515e+01
       E -3.64266e+01  3.73792e+01  6.49362e+01
       E -7.87288e+00  3.73270e+01  4.79487e+01
3
# CELL(abcABC): 1322.94304  1322.94304  1322.94304    90.00000    90.00000    90.00000  Step:        4400  Bead:      12 positions{angstrom}  cell{angstrom}
       E -8.50899e+01 -1.56409e+00 -7.71265e+01
       E -5.48912e+01  6.70076e+01  3.24644e+01
       E -4.05029e+01 -4.24132e-01 -7.95307e+00
3
# CELL(abcABC): 1322.94304  1322.94304  1322.94304    90.00000    90.00000    90.00000  Step:        4500  Bead:      12 positions{angstrom}  cell{angstrom}
       E -6.00973e+01  1.36777e+01 -7.78354e+01
       E -8.55574e+01  6.81887e+01  9.77716e+00
       E -8.30999e+00 -3.09373e+01  2.75829e+01
3
# CELL(abcABC): 1322.94304  1322.94304  1322.94304    90.00000    90.00000    90.00000  Step:        4600  Bead:      12 positions{angstrom}  cell{angstrom}
       E  1.14193e+00  1.83202e+01 -7.47787e+01
       E -6.86695e+01  2.90335e+01 -7.22182e+00
       E  3.59633e+01 -4.63596e+01  4.06427e+01
3
# CELL(abcABC): 1322.94304  1322.94304  1322.94304    90.00000    90.00000    90.00000  Step:        4700  Bead:      12 positions{angstrom}  cell{angstrom}
       E  3.32441e+01  4.09504e+01 -6.08130e+01
       E -8.25589e+01  6.06308e+01 -3.86033e+01
       E  7.05462e+01 -1.12548e+01  1.92613e+00
3
# CELL(abcABC): 1322.94304  1322.94304  1322.94304    90.00000    90.00000    90.00000  Step:        4800  Bead:      12 positions{angstrom}  cell{angstrom}
       E -1.96560e+00  5.99400e+01 -1.95339e+01
       E -6.54634e+01  4.09182e+01 -3.54941e+01
       E  6.28770e+01  9.67682e+00 -1.28089e+01
3
# CELL(abcABC): 1322.94304  1322.94304  1322.94304    90.00000    90.00000    90.00000  Step:        4900  Bead:      12 positions{angstrom}  cell{angstrom}
       E  2.15781e+01  1.57909e+01  2.12208e+00
       E -3.65046e+01 -2.29848e+01 -4.11482e+01
       E  2.66117e+01 -4.37952e+00 -1.46333e+01
3
# CELL(abcABC): 1322.94304  1322.94304  1322.94304    90.00000    90.00000    90.00000  Step:        5000  Bead:      12 positions{angstrom}  cell{angstrom}
       E  7.01862e+00  8.43980e+00 -9.77796e-01
       E -4.02105e+01  5.98316e+00 -1.70559e+01
       E  9.68423e+00 -1.91896e+01 -2.88058e+01
3
# CELL(abcABC): 1322.94304  1322.94304  1322.94304    90.00000    90.00000    90.00000  Step:        5100  Bead:      12 positions{angstrom}  cell{angstrom}
       E -4.40845e+00  1.84302e+00 -4.95479e+00
       E -1.18071e+01  5.06514e-01 -7.94778e+00
       E -1.41224e+01 -1.42742e+01  7.45075e-01
3
# CELL(abcABC): 1322.94304  1322.94304  1322.94304    90.00000    90.00000    90.00000  Step:        5200  Bead:      12 positions{angstrom}  cell{angstrom}
       E  1.02728e+01  2.08636e+01  4.60566e+01
       E -1.23828e+01  3.18170e+01 -6.67721e-01
       E  6.38458e+00 -6.45943e+00  6.54504e+00
3
# CELL(abcABC): 1322.94304  1322.94304  1322.94304    90.00000    90.00000    90.00000  Step:        5300  Bead:      12 positions{angstrom}  cell{angstrom}
       E  9.99068e+00  4.48672e+01  3.74633e+01
       E -2.91844e+01  2.74141e+01 -3.23132e+01
       E  1.10449e+01  1.67193e+01  2.59879e+01
3
# CELL(abcABC): 1322.94304  1322.94304  1322.94304    90.00000    90.00000    90.00000  Step:        5400  Bead:      12 positions{angstrom}  cell{angstrom}
       E  1.65852e+01  1.52455e+01  5.29855e+01
       E -2.06663e+01  2.72338e+01 -2.76760e+01
       E -2.73890e+01  3.99496e+01  3.33428e+01
3
# CELL(abcABC): 1322.94304  1322.94304  1322.94304    90.00000    90.00000    90.00000  Step:        5500  Bead:      12 positions{angstrom}  cell{angstrom}
       E  1.71934e+01  1.98019e+01  4.72956e+01
       E -3.97618e+01 -7.79871e+00 -2.17410e+01
       E -2.48897e+01  4.48312e+00  4.96354e+01
3
# CELL(abcABC): 1322.94304  1322.94304  1322.94304    90.00000    90.00000    90.00000  Step:        5600  Bead:      12 positions{angstrom}  cell{angstrom}
       E -2.16383e+01  6.78400e+00  1.95006e+01
       E -4.43658e+01  8.15949e+00 -3.72861e+01
       E -5.90255e+01  1.32340e+00 -5.57530e-01
3
# CELL(abcABC): 1322.94304  1322.94304  1322.94304    90.00000    90.00000    90.00000  Step:        5700  Bead:      12 positions{angstrom}  cell{angstrom}
       E  1.31609e+01  8.13486e-01  1.16163e+01
       E -4.03840e+01  3.09961e+01 -1.00216e+01
       E -2.27597e+01  2.87991e+00  2.89902e+01
3
# CELL(abcABC): 1322.94304  1322.94304  1322.94304    90.00000    90.00000    90.00000  Step:        5800  Bead:      12 positions{angstrom}  cell{angstrom}
       E  1.51405e+01  7.98424e+00 -1.65596e+01
       E -6.43070e+01  5.05163e+01  4.27181e+00
       E -1.38920e+01  2.67484e+01  4.15385e+00
3
# CELL(abcABC): 1322.94304  1322.94304  1322.94304    90.00000    90.00000    90.00000  Step:        5900  Bead:      12 positions{angstrom}  cell{angstrom}
       E  4.75996e+01  1.92021e+00 -1.31873e+01
       E -1.79070e+01 -4.07482e+00 -1.35323e+01
       E  1.15056e+00 -1.35101e+01  2.34634e+01
3
# CELL(abcABC): 1322.94304  1322.94304  1322.94304    90.00000    90.00000    90.00000  Step:        6000  Bead:      12 positions{angstrom}  cell{angstrom}
       E  2.07059e+01  5.96533e-01 -1.00477e+01
       E  1.73590e+01 -7.55083e+00  1.17781e+01
       E -1.01445e+01  5.92241e+00 -6.10667e-01
3
# CELL(abcABC): 1322.94304  1322.94304  1322.94304    90.00000    90.00000    90.00000  Step:        6100  Bead:      12 positions{angstrom}  cell{angstrom}
       E  1.16289e+01 -5.73814e+01 -5.01700e+01
       E  7.64742e+00  1.82551e+01  2.48192e+01
       E -4.15607e+01 -3.19398e-01  4.66010e+00
3
# CELL(abcABC): 1322.94304  1322.94304  1322.94304    90.00000    90.00000    90.00000  Step:        6200  Bead:      12 positions{angstrom}  cell{angstrom}
       E  1.95054e+01 -1.39762e+01 -6.83668e+01
       E  7.36101e+01  5.07065e+01 -7.00735e+00
       E  6.93457e+00  1.36806e+01  1.04516e+01
3
# CELL(abcABC): 1322.94304  1322.94304  1322.94304    90.00000    90.00000    90.00000  Step:        6300  Bead:      12 positions{angstrom}  cell{angstrom}
       E  2.85313e+01 -3.92803e+01 -9.02754e+01
       E  9.91543e+01 -4.23005e+00 -4.48111e+01
       E -9.83923e+00 -1.04494e+01 -8.15984e+00
3
# CELL(abcABC): 1322.94304  1322.94304  1322.94304    90.00000    90.00000    90.00000  Step:        6400  Bead:      12 positions{angstrom}  cell{angstrom}
       E  3.55218e+01 -7.85042e+01 -9.35454e+01
       E  8.92710e+01  2.51849e-01 -1.74332e+01
       E -3.34645e+00  4.71679e-01  1.81748e+00
3
# CELL(abcABC): 1322.94304  1322.94304  1322.94304    90.00000    90.00000    90.00000  Step:        6500  Bead:      12 positions{angstrom}  cell{angstrom}
       E  7.97055e-01 -8.18386e+01 -1.19023e+02
       E  2.90948e+01 -2.81919e+01 -3.66989e+00
       E  3.95157e+00 -2.73006e+01  1.62208e+01
3
# CELL(abcABC): 1322.94304  1322.94304  1322.94304    90.00000    90.00000    90.00000  Step:        6600  Bead:      12 positions{angstrom}  cell{angstrom}
       E -2.35843e+01 -6.09913e+01 -1.12344e+02
       E  3.45422e+01 -3.56038e+01 -3.79730e+00
       E  6.68052e+00 -3.27106e+01  2.84716e+01
3
# CELL(abcABC): 1322.94304  1322.94304  1322.94304    90.00000    90.00000    90.00000  Step:        6700  Bead:      12 positions{angstrom}  cell{angstrom}
       E -1.51683e+01 -5.78130e+01 -9.03973e+01
       E  2.04723e+01 -5.22656e+00 -6.00060e+00
       E -9.79920e+00  4.33691e-02  7.72559e-01
3
# CELL(abcABC): 1322.94304  1322.94304  1322.94304    90.00000    90.00000    90.00000  Step:        6800  Bead:      12 positions{angstrom}  cell{angstrom}
       E -7.90740e+00 -8.07015e+01 -6.53593e+01
       E  6.15212e+01 -2.40764e+01 -4.77634e-01
       E  1.30984e+01  4.07416e+01 -1.96938e+01
3
# CELL(abcABC): 1322.94304  1322.94304  1322.94304    90.00000    90.00000    90.00000  Step:        6900  Bead:      12 positions{angstrom}  cell{angstrom}
       E  1.79505e+01 -4.68357e+01 -5.26977e+01
       E  1.77098e+01 -1.24038e+01 -3.13308e+01
       E -1.04017e+01  3.41449e+01 -8.04314e+00
3
# CELL(abcABC): 1322.94304  1322.94304  1322.94304    90.00000    90.00000    90.00000  Step:        7000  Bead:      12 positions{angstrom}  cell{angstrom}
       E  7.15327e+00 -6.08759e+01 -3.67892e+01
       E -6.07417e+00 -1.36755e+01  3.36842e+01
       E -4.77578e+00  2.94647e+01  4.12522e+01
3
# CELL(abcABC): 1322.94304  1322.94304  1322.94304    90.00000    90.00000    90.00000  Step:        7100  Bead:      12 positions{angstrom}  cell{angstrom}
       E  7.19686e+00 -5.79709e+01 -2.81333e+01
       E -2.24675e+01 -1.03337e+01  2.86650e+01
       E  1.47596e+01  6.76300e+01  3.60004e+01
3
# CELL(abcABC): 1322.94304  1322.94304  1322.94304    90.00000    90.00000    90.00000  Step:        7200  Bead:      12 positions{angstrom}  cell{angstrom}
       E  3.59469e+01 -4.00411e+01 -1.54585e+01
       E -4.97084e+01  8.22892e+00  2.50122e+01
       E  4.88091e+01  3.52833e+01  8.43075e+00
3
# CELL(abcABC): 1322.94304  1322.94304  1322.94304    90.00000    90.00000    90.00000  Step:        7300  Bead:      12 positions{angstrom}  cell{angstrom}
       E  4.84529e+00 -3.49851e+01 -4.65220e+01
       E -2.87739e+01  5.80274e+01  3.05159e+01
       E  4.14591e+01  1.87482e+01 -1.35942e+01
3
# CELL(abcABC): 1322.94304  1322.94304  1322.94304    90.00000    90.00000    90.00000  Step:        7400  Bead:      12 positions{angstrom}  cell{angstrom}
       E  1.00079e+01 -3.99336e+01 -6.88522e+01
       E -4.55071e+01  4.04199e+01  1.40516e+00
       E  5.24983e+01  4.26137e+01 -4.56464e+01
3
# CELL(abcABC): 1322.94304  1322.94304  1322.94304    90.00000    90.00000    90.00000  Step:        7500  Bead:      12 positions{angstrom}  cell{angstrom}
       E -1.74093e+01 -6.64021e+01 -3.43633e+01
       E -2.61334e+01  6.62574e+00 -1.45025e+00
       E  5.45859e+01  3.50249e+01 -6.76066e+00
3
# CELL(abcABC): 1322.94304  1322.94304  1322.94304    90.00000    90.00000    90.00000  Step:        7600  Bead:      12 positions{angstrom}  cell{angstrom}
       E  1.09406e+01 -5.87963e+01 -2.91815e+01
       E  4.77305e+00 -4.09838e+01 -2.46544e+01
       E  3.45543e+01  3.84753e+01  2.45742e+00
3
# CELL(abcABC): 1322.94304  1322.94304  1322.94304    90.00000    90.00000    90.00000  Step:        7700  Bead:      12 positions{angstrom}  cell{angstrom}
       E  8.47895e+00 -7.44154e+01 -1.61791e+01
       E -6.35856e+00 -5.69646e+01 -6.93477e+01
       E  2.22681e+01  3.69095e+01 -4.08091e+01
3
# CELL(abcABC): 1322.94304  1322.94304  1322.94304    90.00000    90.00000    90.00000  Step:        7800  Bead:      12 positions{angstrom}  cell{angstrom}
       E  1.59365e+01 -5.80054e+01 -4.00623e+01
       E -6.09860e+00 -6.23198e+01 -3.72194e+01
       E  2.82614e+01  3.85804e+00 -4.42769e+01
3
# CELL(abcABC): 1322.94304  1322.94304  1322.94304    90.00000    90.00000    90.00000  Step:        7900  Bead:      12 positions{angstrom}  cell{angstrom}
       E  3.90123e+01 -1.60675e+01 -4.03705e+01
       E -4.97364e+00 -3.92306e+00 -3.18971e+01
       E -2.71941e+00  3.33752e+01 -5.23830e+01
3
# CELL(abcABC): 1322.94304  1322.94304  1322.94304    90.00000    90.00000    90.00000  Step:        8000  Bead:      12 positions{angstrom}  cell{angstrom}
       E  1.23477e+01 -1.44603e+01 -3.52552e+01
       E  5.28410e+00  9.64057e+00 -3.17031e+01
       E  1.21554e+01  2.89282e+01 -4.41275e+01
3
# CELL(abcABC): 1322.94304  1322.94304  1322.94304    90.00000    90.00000    90.00000  Step:        8100  Bead:      12 positions{angstrom}  cell{angstrom}
       E  3.07283e+01  9.02859e+00 -5.58828e+01
       E  2.21945e+00 -9.85445e-01 -2.15757e+01
       E  4.00729e+01  1.81910e+01 -1.36804e+01
3
# CELL(abcABC): 1322.94304  1322.94304  1322.94304    90.00000    90.00000    90.00000  Step:        8200  Bead:      12 positions{angstrom}  cell{angstrom}
       E  4.55613e+01  4.95265e+01 -5.78701e+01
       E -4.55909e+01 -6.23448e+00 -2.35279e+01
       E  2.56454e+00 -8.86237e+00  1.57862e+01
3
# CELL(abcABC): 1322.94304  1322.94304  1322.94304    90.00000    90.00000    90.00000  Step:        8300  Bead:      12 positions{angstrom}  cell{angstrom}
       E  3.83143e+01  3.87615e+01 -4.59794e+01
       E -2.49144e+01  2.26476e+01  2.61579e+01
       E  1.12176e+01 -5.99282e+01  5.11599e+01
3
# CELL(abcABC): 1322.94304  1322.94304  1322.94304    90.00000    90.00000    90.00000  Step:        8400  Bead:      12 positions{angstrom}  cell{angstrom}
       E  1.56826e+01  7.67251e+00 -3.09774e+01
       E  1.10425e+01  4.02783e+01 -1.51795e+01
       E  2.65774e+01 -4.10426e+01  4.23132e+01
3
# CELL(abcABC): 1322.94304  1322.94304  1322.94304    90.00000    90.00000    90.00000  Step:        8500  Bead:      12 positions{angstrom}  cell{angstrom}
       E -4.32786e+01 -1.78357e+01 -1.59065e+01
       E  3.63032e+01  3.49591e+01 -1.26086e+01
       E  1.68156e+01 -3.28967e+01  3.18577e+01
3
# CELL(abcABC): 1322.94304  1322.94304  1322.94304    90.00000    90.00000    90.00000  Step:        8600  Bead:      12 positions{angstrom}  cell{angstrom}
       E -2.84109e+01 -8.72664e+00  2.48631e+00
       E  6.08180e+00  2.70552e+01 -5.51512e+01
       E  1.06815e+01 -1.48016e+01  3.13977e+01
3
# CELL(abcABC): 1322.94304  1322.94304  1322.94304    90.00000    90.00000    90.00000  Step:        8700  Bead:      12 positions{angstrom}  cell{angstrom}
       E -4.29892e+01  1.07260e+01 -2.56410e+01
       E -1.38174e+01  1.95332e+01 -2.81296e+01
       E  1.42532e+01 -3.48191e+01  7.39247e+01
3
# CELL(abcABC): 1322.94304  1322.94304  1322.94304    90.00000    90.00000    90.00000  Step:        8800  Bead:      12 positions{angstrom}  cell{angstrom}
       E -3.94492e+01  2.15656e+01  2.20671e+01
       E  1.23180e+01 -6.80275e+00  7.72018e+00
       E  1.19055e+01 -8.44590e+01  6.71583e+01
3
# CELL(abcABC): 1322.94304  1322.94304  1322.94304    90.00000    90.00000    90.00000  Step:        8900  Bead:      12 positions{angstrom}  cell{angstrom}
       E -3.43544e+01  2.30201e+01  2.51218e+01
       E  5.63954e+00 -2.36970e+01  2.93663e+01
       E  2.43930e+00 -4.94439e+01  4.94309e+01
3
# CELL(abcABC): 1322.94304  1322.94304  1322.94304    90.00000    90.00000    90.00000  Step:        9000  Bead:      12 positions{angstrom}  cell{angstrom}
       E -8.55748e+00  2.57899e+01  1.77051e+01
       E -1.83806e+01 -2.15969e+01  5.24835e+01
       E  3.81142e+01 -2.88603e+01  6.37132e+00
3
# CELL(abcABC): 1322.94304  1322.94304  1322.94304    90.00000    90.00000    90.00000  Step:        9100  Bead:      12 positions{angstrom}  cell{angstrom}
       E  4.46580e+00  2.58272e+01  1.29213e+01
       E -3.70504e+01  1.32028e+01  6.91129e+01
       E  2.22359e+01 -1.52805e+01  2.92951e+01
3
# CELL(abcABC): 1322.94304  1322.94304  1322.94304    90.00000    90.00000    90.00000  Step:        9200  Bead:      12 positions{angstrom}  cell{angstrom}
       E  5.91259e+00  2.63794e+01  8.10479e+00
       E -5.00494e+01 -1.57938e+01  3.73957e+01
       E  2.27513e+01 -6.78893e+01 -2.63478e+00
3
# CELL(abcABC): 1322.94304  1322.94304  1322.94304    90.00000    90.00000    90.00000  Step:        9300  Bead:      12 positions{angstrom}  cell{angstrom}
       E  2.08153e+00  2.93211e+01 -5.67802e+00
       E -2.85652e+01  6.86290e+00  9.22381e+00
       E  3.39876e+01 -6.32735e+01  1.96383e+01
3
# CELL(abcABC): 1322.94304  1322.94304  1322.94304    90.00000    90.00000    90.00000  Step:        9400  Bead:      12 positions{angstrom}  cell{angstrom}
       E  2.85730e+01  7.91928e+01 -6.31519e+01
       E -3.23801e+01 -5.29133e+01  2.42487e+01
       E  5.55123e+01 -6.39287e+01 -2.32788e+01
3
# CELL(abcABC): 1322.94304  1322.94304  1322.94304    90.00000    90.00000    90.00000  Step:        9500  Bead:      12 positions{angstrom}  cell{angstrom}
       E  8.25584e+00  5.87428e+01 -5.44378e+01
       E -2.85103e+01 -4.94807e+01  3.36726e+01
       E  1.97453e+01 -2.04320e+01  4.26356e+00
3
# CELL(abcABC): 1322.94304  1322.94304  1322.94304    90.00000    90.00000    90.00000  Step:        9600  Bead:      12 positions{angstrom}  cell{angstrom}
       E  1.25472e+01  4.80442e+01 -1.74656e+01
       E  3.24202e+01 -5.15197e+01  3.31650e+01
       E  1.28394e+01 -1.58041e+01  8.95904e+00
3
# CELL(abcABC): 1322.94304  1322.94304  1322.94304    90.00000    90.00000    90.00000  Step:        9700  Bead:      12 positions{angstrom}  cell{angstrom}
       E  2.19600e+01 -2.77118e+01 -2.95782e+01
       E  7.05426e+01 -5.58735e+01  2.00307e+01
       E  2.63688e+01 -4.82342e+00  6.46719e+00
3
# CELL(abcABC): 1322.94304  1322.94304  1322.94304    90.00000    90.00000    90.00000  Step:        9800  Bead:      12 positions{angstrom}  cell{angstrom}
       E  7.15637e+00 -6.07582e+01 -6.37145e+01
       E  4.13364e+01 -8.80744e+01 -7.30385e-01
       E  2.65418e+01 -6.54215e+00  1.97531e+01
3