3
# CELL(abcABC): 1322.94304  1322.94304  1322.94304    90.00000    90.00000    90.00000  Step:           0  Bead:      23 positions{angstrom}  cell{angstrom}
       E  0.00000e+00  0.00000e+00  0.00000e+00
       E  0.00000e+00  0.00000e+00  0.00000e+00
       E  0.00000e+00  0.00000e+00  0.00000e+00
3
# CELL(abcABC): 1322.94304  1322.94304  1322.94304    90.00000    90.00000    90.00000  Step:         100  Bead:      23 positions{angstrom}  cell{angstrom}
       E  3.05330e+01 -2.09839e+01 -1.54635e+01
       E  4.29769e+00 -2.89612e+01 -1.28204e+01
       E -1.22864e+00  1.65191e+01  6.52815e+00
3
# CELL(abcABC): 1322.94304  1322.94304  1322.94304    90.00000    90.00000    90.00000  Step:         200  Bead:      23 positions{angstrom}  cell{angstrom}
       E -8.61117e+00 -2.20320e+01  1.81889e+01
       E  1.07939e+01 -6.65258e+01 -4.48327e+00
       E  8.00642e+00  3.94921e+01 -3.76678e-01
3
# CELL(abcABC): 1322.94304  1322.94304  1322.94304    90.00000    90.00000    90.00000  Step:         300  Bead:      23 positions{angstrom}  cell{angstrom}
       E -1.00606e+01 -9.78507e+00  3.31161e+01
       E  1.34723e+01 -2.82910e+01  1.63977e+01
       E -1.26866e+00  2.02949e+01 -6.99740e+00
3
# CELL(abcABC): 1322.94304  1322.94304  1322.94304    90.00000    90.00000    90.00000  Step:         400  Bead:      23 positions{angstrom}  cell{angstrom}
       E  1.46176e+01  2.53744e+00 -2.01627e+01
       E  2.26255e+01 -4.14220e+01 -5.54038e+00
       E -4.27287e+00  2.22166e+01  1.09627e+00
3
# CELL(abcABC): 1322.94304  1322.94304  1322.94304    90.00000    90.00000    90.00000  Step:         500  Bead:      23 positions{angstrom}  cell{angstrom}
       E  2.12553e+00 -1.47055e+01 -5.98262e+01
       E  2.48087e+01  9.81879e+00  1.17844e+01
       E -2.34046e+01 -4.49739e-01  3.18856e+01
3
# CELL(abcABC): 1322.94304  1322.94304  1322.94304    90.00000    90.00000    90.00000  Step:         600  Bead:      23 positions{angstrom}  cell{angstrom}
       E  3.78463e+01 -6.74992e+00 -3.68862e+01
       E  3.50030e+01  1.51584e+01  5.85923e+00
       E  4.55603e+00  9.52937e+00  5.11830e+00
3
# CELL(abcABC): 1322.94304  1322.94304  1322.94304    90.00000    90.00000    90.00000  Step:         700  Bead:      23 positions{angstrom}  cell{angstrom}
       E  4.46121e+01 -1.29971e+01 -3.19266e+01
       E  2.81627e+01 -2.44309e+01  2.13381e+01
       E -2.10150e+01  5.77266e+00  6.81185e+01
3
# CELL(abcABC): 1322.94304  1322.94304  1322.94304    90.00000    90.00000    90.00000  Step:         800  Bead:      23 positions{angstrom}  cell{angstrom}
       E  2.32861e+01 -1.71054e+01 -2.11185e+01
       E  4.90151e+01  1.84023e+00  1.41081e+01
       E -3.93650e+01  5.04222e+00  7.30984e+01
3
# CELL(abcABC): 1322.94304  1322.94304  1322.94304    90.00000    90.00000    90.00000  Step:         900  Bead:      23 positions{angstrom}  cell{angstrom}
       E  1.29572e+01  3.38068e+01 -3.77186e+01
       E  1.40890e+01 -1.15241e+01  6.53844e+00
       E -5.78568e+01  1.00882e+01  9.01521e+01
3
# CELL(abcABC): 1322.94304  1322.94304  1322.94304    90.00000    90.00000    90.00000  Step:        1000  Bead:      23 positions{angstrom}  cell{angstrom}
       E  2.45511e+01  2.24160e+01 -1.79383e+01
       E -9.59235e-02  7.32564e+00 -3.69247e+01
       E -5.89721e+01  1.73868e+01  9.35792e+01
3
# CELL(abcABC): 1322.94304  1322.94304  1322.94304    90.00000    90.00000    90.00000  Step:        1100  Bead:      23 positions{angstrom}  cell{angstrom}
       E -9.48937e+00  2.25483e+01 -7.29344e+01
       E -7.98585e+00 -1.11344e+01 -2.64295e+01
       E  7.80642e+00  4.11296e+01  6.79224e+01
3
# CELL(abcABC): 1322.94304  1322.94304  1322.94304    90.00000    90.00000    90.00000  Step:        1200  Bead:      23 positions{angstrom}  cell{angstrom}
       E  7.30528e+00 -6.50240e+00 -3.15370e+01
       E  2.28529e+01  8.55901e+00 -4.74576e+01
       E  3.59770e+00  6.28831e+01  1.32437e+01
3
# CELL(abcABC): 1322.94304  1322.94304  1322.94304    90.00000    90.00000    90.00000  Step:        1300  Bead:      23 positions{angstrom}  cell{angstrom}
       E  1.13906e+01  4.09680e+01 -5.84093e+01
       E  6.17212e+00 -2.31971e+01 -8.78809e+01
       E -1.82633e+01  2.01431e+01  1.85917e+01
3
# CELL(abcABC): 1322.94304  1322.94304  1322.94304    90.00000    90.00000    90.00000  Step:        1400  Bead:      23 positions{angstrom}  cell{angstrom}
       E -1.81356e+01  5.38272e+01 -7.48168e+01
       E  2.74999e+01 -4.04107e+00 -5.22386e+01
       E -2.62741e+01 -2.60729e+00  1.33329e+01
3
# CELL(abcABC): 1322.94304  1322.94304  1322.94304    90.00000    90.00000    90.00000  Step:        1500  Bead:      23 positions{angstrom}  cell{angstrom}
       E  1.39066e+01  5.68264e+01 -7.45287e+01
       E -3.82450e+01  1.31227e+01 -4.34310e+01
       E -8.76493e-01  1.43310e+01  4.40708e+01
3
# CELL(abcABC): 1322.94304  1322.94304  1322.94304    90.00000    90.00000    90.00000  Step:        1600  Bead:      23 positions{angstrom}  cell{angstrom}
       E -2.52540e+01  3.23174e+01 -4.15853e+01
       E -3.42998e+01  2.81605e+01 -1.70458e+01
       E  3.23918e+01  4.66839e+01  1.82972e+01
3
# CELL(abcABC): 1322.94304  1322.94304  1322.94304    90.00000    90.00000    90.00000  Step:        1700  Bead:      23 positions{angstrom}  cell{angstrom}
       E -1.37006e+01  4.29279e+01 -1.47568e+01
       E -1.20291e+01  2.31015e+01  2.03919e+01
       E  2.43475e+01  6.32137e+01 -4.99891e+00
3
# CELL(abcABC): 1322.94304  1322.94304  1322.94304    90.00000    90.00000    90.00000  Step:        1800  Bead:      23 positions{angstrom}  cell{angstrom}
       E -2.15694e+01  3.51855e+01  3.44652e+01
       E -6.95568e+01  2.54822e+01  2.90420e+01
       E -6.01376e+01  5.02224e+01  1.17449e+01
3
# CELL(abcABC): 1322.94304  1322.94304  1322.94304    90.00000    90.00000    90.00000  Step:        1900  Bead:      23 positions{angstrom}  cell{angstrom}
       E  1.32906e+01  4.34464e+00  2.11891e+01
       E -5.05708e+01  5.48805e+01  3.30049e+00
       E -7.06838e+01  4.55714e+01 -1.76914e+01
3
# CELL(abcABC): 1322.94304  1322.94304  1322.94304    90.00000    90.00000    90.00000  Step:        2000  Bead:      23 positions{angstrom}  cell{angstrom}
       E -2.67754e+01 -4.56536e+01  5.32034e+01
       E -3.28826e+01  2.17901e+00  1.61383e+01
       E -7.22322e+01  8.29685e+01 -1.14172e+01
3
# CELL(abcABC): 1322.94304  1322.94304  1322.94304    90.00000    90.00000    90.00000  Step:        2100  Bead:      23 positions{angstrom}  cell{angstrom}
       E -1.76251e+01 -4.74689e+01  4.49539e+01
       E -1.69926e+01 -1.84832e+01  3.57837e+01
       E -5.54690e+01  9.08305e+01  2.06279e+01
3
# CELL(abcABC): 1322.94304  1322.94304  1322.94304    90.00000    90.00000    90.00000  Step:        2200  Bead:      23 positions{angstrom}  cell{angstrom}
       E -2.05438e+01 -6.83693e+01  2.27925e-01
       E -1.93432e+01 -3.10570e+01  1.39498e+01
       E -3.58272e+01  2.62256e+01 -5.65524e+00
3
# CELL(abcABC): 1322.94304  1322.94304  1322.94304    90.00000    90.00000    90.00000  Step:        2300  Bead:      23 positions{angstrom}  cell{angstrom}
       E -3.83679e+01 -7.63858e+01  3.48934e+01
       E -3.13594e+01  2.49232e+01 -1.12904e+01
       E -4.15391e+01  1.67480e+01 -1.54339e+01
3
# CELL(abcABC): 1322.94304  1322.94304  1322.94304    90.00000    90.00000    90.00000  Step:        2400  Bead:      23 positions{angstrom}  cell{angstrom}
       E -4.73137e+00 -3.62294e+01  2.99581e-01
       E -2.02602e+01 -1.96433e+01 -1.10819e+01
       E -1.88030e+01  1.05676e+01 -1.88066e+00
3
# CELL(abcABC): 1322.94304  1322.94304  1322.94304    90.00000    90.00000    90.00000  Step:        2500  Bead:      23 positions{angstrom}  cell{angstrom}
       E -5.14682e+01 -1.80114e+01  2.84686e+01
       E -2.08800e+01 -4.56598e+01 -2.41585e+01
       E  1.84680e+01 -1.28282e+01  3.25037e+01
3
# CELL(abcABC): 1322.94304  1322.94304  1322.94304    90.00000    90.00000    90.00000  Step:        2600  Bead:      23 positions{angstrom}  cell{angstrom}
       E -6.07331e+01 -1.70796e+01  3.07378e+01
       E -7.15817e+01 -3.42787e+01 -3.06544e+01
       E  3.29548e+01 -3.07298e+01  1.01914e+02
3
# CELL(abcABC): 1322.94304  1322.94304  1322.94304    90.00000    90.00000    90.00000  Step:        2700  Bead:      23 positions{angstrom}  cell{angstrom}
       E -7.02562e+01 -3.90699e+01  6.14742e+01
       E -3.79857e+01 -3.49841e+01 -4.46711e+01
       E -8.39685e+00 -5.05219e+01  8.85949e+01
3
# CELL(abcABC): 1322.94304  1322.94304  1322.94304    90.00000    90.00000    90.00000  Step:        2800  Bead:      23 positions{angstrom}  cell{angstrom}
       E -3.98329e+01 -4.80686e+01  9.55477e+01
       E -6.78402e+01 -5.34692e+01  6.61389e-01
       E  3.92367e+01 -4.54747e+01  4.40956e+01
3
# CELL(abcABC): 1322.94304  1322.94304  1322.94304    90.00000    90.00000    90.00000  Step:        2900  Bead:      23 positions{angstrom}  cell{angstrom}
       E -6.54764e+01 -4.30902e+01  7.69010e+01
       E -6.48553e+01 -7.08201e+01  3.38015e+01
       E  2.44939e+01 -2.16314e+01  5.25560e+01
3
# CELL(abcABC): 1322.94304  1322.94304  1322.94304    90.00000    90.00000    90.00000  Step:        3000  Bead:      23 positions{angstrom}  cell{angstrom}
       E -6.22137e+01 -6.22014e+01  7.55355e+01
       E -7.98985e+01 -4.14382e+01  6.18270e+00
       E  2.44293e+01  4.45375e+01  3.60032e+00
3
# CELL(abcABC): 1322.94304  1322.94304  1322.94304    90.00000    90.00000    90.00000  Step:        3100  Bead:      23 positions{angstrom}  cell{angstrom}
       E -8.01377e+01 -4.12287e+01  6.17581e+01
       E -8.09955e+01 -7.00319e+01  3.74029e+01
       E  7.08678e+01  6.37618e+01  6.76383e+00
3
# CELL(abcABC): 1322.94304  1322.94304  1322.94304    90.00000    90.00000    90.00000  Step:        3200  Bead:      23 positions{angstrom}  cell{angstrom}
       E -8.45827e+01 -1.94754e+01  2.16923e+01
       E -7.14273e+01 -3.83030e+01  6.48232e+01
       E  3.67192e+01  4.78478e+01  1.55662e+01
3
# CELL(abcABC): 1322.94304  1322.94304  1322.94304    90.00000    90.00000    90.00000  Step:        3300  Bead:      23 positions{angstrom}  cell{angstrom}
       E -5.46375e+01  2.33762e+00  6.37158e+01
       E -9.51167e+01 -3.63217e+01  5.91923e+01
       E  2.94376e+01  7.70377e+01 -2.43023e+01
3
# CELL(abcABC): 1322.94304  1322.94304  1322.94304    90.00000    90.00000    90.00000  Step:        3400  Bead:      23 positions{angstrom}  cell{angstrom}
       E -9.36270e+01  8.25906e+00  8.19718e+01
       E -5.63169e+01 -3.09343e+01  3.78068e+01
       E  3.05127e+01  7.05956e+01  2.83732e+01
3
# CELL(abcABC): 1322.94304  1322.94304  1322.94304    90.00000    90.00000    90.00000  Step:        3500  Bead:      23 positions{angstrom}  cell{angstrom}
       E -1.00260e+02  1.66919e+01  7.81940e+01
       E -2.54182e+01 -3.97008e+01  3.29830e+01
       E  2.33647e+01  3.51208e+01  3.06935e+01
3
# CELL(abcABC): 1322.94304  1322.94304  1322.94304    90.00000    90.00000    90.00000  Step:        3600  Bead:      23 positions{angstrom}  cell{angstrom}
       E -1.26877e+02 -2.49298e+01  5.72050e+01
       E -8.12261e+00 -2.27744e+01  4.87506e+01
       E -3.67407e+01  2.06836e+01  2.03423e+01
3
# CELL(abcABC): 1322.94304  1322.94304  1322.94304    90.00000    90.00000    90.00000  Step:        3700  Bead:      23 positions{angstrom}  cell{angstrom}
       E -8.37903e+01 -1.26686e+01  2.03712e+01
       E -5.87671e+00 -5.37648e+01  2.52462e+01
       E -4.37023e+01  3.07270e+01  9.43084e+00
3
# CELL(abcABC): 1322.94304  1322.94304  1322.94304    90.00000    90.00000    90.00000  Step:        3800  Bead:      23 positions{angstrom}  cell{angstrom}
       E -8.46820e+01  6.77444e+00  1.57284e+01
       E  8.23947e+00 -5.17848e+01  3.65000e+01
       E -3.59888e+01 -2.45443e+00  4.04290e+00
3
# CELL(abcABC): 1322.94304  1322.94304  1322.94304    90.00000    90.00000    90.00000  Step:        3900  Bead:      23 positions{angstrom}  cell{angstrom}
       E -8.96046e+01 -1.04625e+01 -1.79324e+01
       E -9.07549e+00 -1.59003e+01  5.40690e+00
       E -4.79697e+00 -1.61400e+01  2.99455e+00
3
# CELL(abcABC): 1322.94304  1322.94304  1322.94304    90.00000    90.00000    90.00000  Step:        4000  Bead:      23 positions{angstrom}  cell{angstrom}
       E -1.07634e+02 -1.09617e+00 -3.29525e+01
       E -3.61887e+01 -4.98436e+00  1.27191e+01
       E -2.45321e+01 -5.77954e+00  3.01468e+01
3
# CELL(abcABC): 1322.94304  1322.94304  1322.94304    90.00000    90.00000    90.00000  Step:        4100  Bead:      23 positions{angstrom}  cell{angstrom}
       E -1.00827e+02  3.16988e+01 -8.35111e+01
       E -5.08255e+01  1.46378e+01 -5.53257e+00
       E  2.19697e+00  9.45921e+00  2.17127e+01
3
# CELL(abcABC): 1322.94304  1322.94304  1322.94304    90.00000    90.00000    90.00000  Step:        4200  Bead:      23 positions{angstrom}  cell{angstrom}
       E -7.95158e+01  1.25899e+00 -1.18143e+02
       E -5.94536e+01  1.99268e+01  1.16946e+01
       E  1.93775e+01  2.33660e+01  9.25901e+00
3
# CELL(abcABC): 1322.94304  1322.94304  1322.94304    90.00000    90.00000    90.00000  Step:        4300  Bead:      23 positions{angstrom}  cell{angstrom}
       E -6.65194e+01  1.67153e+01 -6.02887e+01
       E -2.09009e+01  4.41881e+01 -1.10757e+01
       E  2.80825e+01  4.57099e+00  3.74928e+01
3
# CELL(abcABC): 1322.94304  1322.94304  1322.94304    90.00000    90.00000    90.00000  Step:        4400  Bead:      23 positions{angstrom}  cell{angstrom}
       E -4.76299e+01  3.07660e+01 -6.39933e+01
       E -2.06225e+01  4.99533e+01 -2.57735e+01
       E  4.65904e+01 -5.03432e+01  1.45271e+01
3
# CELL(abcABC): 1322.94304  1322.94304  1322.94304    90.00000    90.00000    90.00000  Step:        4500  Bead:      23 positions{angstrom}  cell{angstrom}
       E -4.66464e+01  1.83741e+01 -7.53902e+01
       E -2.80325e+01  6.60945e+01 -2.37504e+01
       E  4.06321e+01 -5.97731e+01  3.02944e+01
3
# CELL(abcABC): 1322.94304  1322.94304  1322.94304    90.00000    90.00000    90.00000  Step:        4600  Bead:      23 positions{angstrom}  cell{angstrom}
       E -6.13245e+01  2.44170e+01 -2.19309e+01
       E -3.55377e+01  5.75527e+01  1.24514e+01
       E -1.00051e+01 -3.36324e+01  3.06565e+01
3
# CELL(abcABC): 1322.94304  1322.94304  1322.94304    90.00000    90.00000    90.00000  Step:        4700  Bead:      23 positions{angstrom}  cell{angstrom}
       E -2.04534e+01  3.04723e+01 -9.02629e+01
       E -6.22962e+01  5.59555e+01 -3.16076e+00
       E -1.38226e+01 -4.57804e+01  1.80315e+01
3
# CELL(abcABC): 1322.94304  1322.94304  1322.94304    90.00000    90.00000    90.00000  Step:        4800  Bead:      23 positions{angstrom}  cell{angstrom}
       E  7.19267e+00  1.05884e+01 -6.30453e+01
       E -4.37557e+01  2.43927e+01 -1.55169e+01
       E  1.22579e+01 -4.19621e+01  2.06749e+01
3
# CELL(abcABC): 1322.94304  1322.94304  1322.94304    90.00000    90.00000    90.00000  Step:        4900  Bead:      23 positions{angstrom}  cell{angstrom}
       E  1.97561e+01  2.37819e+01 -3.88528e+01
       E -5.15001e+01 -6.56716e+00 -4.36107e+01
       E -1.56592e+01 -4.12130e+01 -2.96279e+01
3
# CELL(abcABC): 1322.94304  1322.94304  1322.94304    90.00000    90.00000    90.00000  Step:        5000  Bead:      23 positions{angstrom}  cell{angstrom}
       E  5.74152e+01  8.91195e+00  1.41505e+01
       E -2.90291e+01 -2.68042e+01 -2.60017e+01
       E -1.22773e+01 -8.95602e+00 -2.02349e+01
3
# CELL(abcABC): 1322.94304  1322.94304  1322.94304    90.00000    90.00000    90.00000  Step:        5100  Bead:      23 positions{angstrom}  cell{angstrom}
       E  1.35740e+01  3.73207e+00  2.20464e+01
       E -2.28400e+01 -2.36376e+01 -5.42323e+01
       E  8.43348e+00  4.08379e+00 -3.85895e+01
3
# CELL(abcABC): 1322.94304  1322.94304  1322.94304    90.00000    90.00000    90.00000  Step:        5200  Bead:      23 positions{angstrom}  cell{angstrom}
       E -5.05012e+01  8.03113e+00  5.02564e+01
       E -4.88999e+01  4.48947e+00 -3.31290e+01
       E  2.87317e+01 -1.20319e+00 -1.59868e+01
3
# CELL(abcABC): 1322.94304  1322.94304  1322.94304    90.00000    90.00000    90.00000  Step:        5300  Bead:      23 positions{angstrom}  cell{angstrom}
       E  1.58386e+01 -1.61877e+01  4.16146e+00
       E -3.30370e+01  3.14880e+01 -6.28129e+00
       E -5.28700e+01  4.17605e+01  2.11874e+01
3
# CELL(abcABC): 1322.94304  1322.94304  1322.94304    90.00000    90.00000    90.00000  Step:        5400  Bead:      23 positions{angstrom}  cell{angstrom}
       E  3.03040e+01  7.47145e+00 -2.66171e+01
       E -3.03993e+01  1.39718e+01  6.06341e+00
       E -3.18388e+01  2.71977e+01  1.06772e+01
3
# CELL(abcABC): 1322.94304  1322.94304  1322.94304    90.00000    90.00000    90.00000  Step:        5500  Bead:      23 positions{angstrom}  cell{angstrom}
       E  4.10420e+01 -2.88053e+01 -1.18665e+01
       E -3.77866e+01  1.18438e+01 -8.81604e+00
       E -2.69584e+01  2.87362e+01  4.10797e+01
3
# CELL(abcABC): 1322.94304  1322.94304  1322.94304    90.00000    90.00000    90.00000  Step:        5600  Bead:      23 positions{angstrom}  cell{angstrom}
       E  2.53237e+01  2.34630e+01 -3.32566e+01
       E -9.90010e+00  1.64543e+01  2.45255e+01
       E -7.45619e+01  6.30119e+00  2.12508e+01
3
# CELL(abcABC): 1322.94304  1322.94304  1322.94304    90.00000    90.00000    90.00000  Step:        5700  Bead:      23 positions{angstrom}  cell{angstrom}
       E  4.94994e+01 -1.34920e+01 -4.65589e+01
       E -4.30681e+01 -8.36718e-03 -1.08331e+01
       E -5.19865e+01  1.02075e+01  3.47335e+00
3
# CELL(abcABC): 1322.94304  1322.94304  1322.94304    90.00000    90.00000    90.00000  Step:        5800  Bead:      23 positions{angstrom}  cell{angstrom}
       E  2.08897e+01  1.24152e+01 -2.75235e+01
       E -4.57102e+01 -4.99563e+00 -9.54676e+00
       E -3.34246e+01 -7.24110e+00  9.74248e+00
3
# CELL(abcABC): 1322.94304  1322.94304  1322.94304    90.00000    90.00000    90.00000  Step:        5900  Bead:      23 positions{angstrom}  cell{angstrom}
       E  3.20945e+01 -1.11114e+01 -3.90800e+00
       E -1.36571e+01  1.80599e+01  6.55814e+00
       E  1.57304e+01 -5.54212e+01  1.33178e+01
3
# CELL(abcABC): 1322.94304  1322.94304  1322.94304    90.00000    90.00000    90.00000  Step:        6000  Bead:      23 positions{angstrom}  cell{angstrom}
       E -1.46489e+01 -2.52755e+01 -4.10500e+01
       E  3.22525e+01 -1.76016e+01 -1.81276e+01
       E  9.82747e-02 -4.57344e+01  5.02116e+00
3
# CELL(abcABC): 1322.94304  1322.94304  1322.94304    90.00000    90.00000    90.00000  Step:        6100  Bead:      23 positions{angstrom}  cell{angstrom}
       E -1.32192e+01 -3.18861e+01 -3.19551e+01
       E  8.21343e+01  2.89505e+01 -5.12537e+01
       E  6.62447e+00 -4.62195e+01  2.18661e+01
3
# CELL(abcABC): 1322.94304  1322.94304  1322.94304    90.00000    90.00000    90.00000  Step:        6200  Bead:      23 positions{angstrom}  cell{angstrom}
       E  2.92360e+01 -9.70695e+00 -9.10670e+01
       E  1.14631e+02  3.07878e+01  4.62951e+00
       E  2.68637e+00 -4.48447e+01  9.94066e+00
3
# CELL(abcABC): 1322.94304  1322.94304  1322.94304    90.00000    90.00000    90.00000  Step:        6300  Bead:      23 positions{angstrom}  cell{angstrom}
       E  5.59356e+01 -5.61327e+01 -1.22930e+02
       E  7.93240e+01 -1.29613e+01 -3.25014e+01
       E -7.31006e+00 -5.42123e+01  4.38164e+01
3
# CELL(abcABC): 1322.94304  1322.94304  1322.94304    90.00000    90.00000    90.00000  Step:        6400  Bead:      23 positions{angstrom}  cell{angstrom}
       E  8.91163e+01 -7.36400e+01 -1.43025e+02
       E  1.24982e+01 -3.17064e+01 -3.61002e+01
       E  1.50259e+00 -5.50537e+01 -6.89054e+00
3
# CELL(abcABC): 1322.94304  1322.94304  1322.94304    90.00000    90.00000    90.00000  Step:        6500  Bead:      23 positions{angstrom}  cell{angstrom}
       E  5.58872e+01 -9.92520e+01 -1.19063e+02
       E  2.79341e+01  1.59433e+01 -5.71667e+01
       E  3.42352e+01 -1.82834e+01  1.11300e+01
3
# CELL(abcABC): 1322.94304  1322.94304  1322.94304    90.00000    90.00000    90.00000  Step:        6600  Bead:      23 positions{angstrom}  cell{angstrom}
       E  2.03250e+01 -1.00588e+02 -8.99325e+01
       E  3.40018e+01 -2.26180e+00 -2.95467e+01
       E  3.74353e+01  2.68618e+01  2.53225e+01
3
# CELL(abcABC): 1322.94304  1322.94304  1322.94304    90.00000    90.00000    90.00000  Step:        6700  Bead:      23 positions{angstrom}  cell{angstrom}
       E  1.61829e+01 -1.09663e+02 -1.09149e+02
       E  6.22458e+01 -2.40013e+01  7.86702e+00
       E  4.27087e+00  6.14622e+00  3.48875e+01
3
# CELL(abcABC): 1322.94304  1322.94304  1322.94304    90.00000    90.00000    90.00000  Step:        6800  Bead:      23 positions{angstrom}  cell{angstrom}
       E  2.50389e+01 -1.27266e+02 -7.79749e+01
       E  6.95616e+01 -3.25964e+01  1.58848e-01
       E -1.45088e+01 -1.47633e+01  2.57185e+01
3
# CELL(abcABC): 1322.94304  1322.94304  1322.94304    90.00000    90.00000    90.00000  Step:        6900  Bead:      23 positions{angstrom}  cell{angstrom}
       E  4.09626e+01 -9.96028e+01 -6.52291e+00
       E  6.61722e+01 -1.51282e+01 -2.03651e+01
       E -2.74039e+01 -9.16668e+00 -3.65745e+01
3
# CELL(abcABC): 1322.94304  1322.94304  1322.94304    90.00000    90.00000    90.00000  Step:        7000  Bead:      23 positions{angstrom}  cell{angstrom}
       E  2.02636e+01 -2.95846e+01 -7.02546e+00
       E  4.84922e+01  2.68340e+01 -3.43552e+01
       E  2.95286e+01  3.55791e+01 -4.68965e+01
3
# CELL(abcABC): 1322.94304  1322.94304  1322.94304    90.00000    90.00000    90.00000  Step:        7100  Bead:      23 positions{angstrom}  cell{angstrom}
       E  3.85589e+01 -1.62619e+01 -4.93386e+01
       E -6.68664e+00  2.80069e+01  1.90687e+01
       E  7.61494e+01  1.00115e+01 -4.65078e+01
3
# CELL(abcABC): 1322.94304  1322.94304  1322.94304    90.00000    90.00000    90.00000  Step:        7200  Bead:      23 positions{angstrom}  cell{angstrom}
       E  4.70543e+00 -2.52624e+01 -4.46507e+01
       E -4.67025e+01  6.22515e+01  1.20500e+01
       E  7.00545e+01  5.78555e+01 -4.83096e+01
3
# CELL(abcABC): 1322.94304  1322.94304  1322.94304    90.00000    90.00000    90.00000  Step:        7300  Bead:      23 positions{angstrom}  cell{angstrom}
       E  5.91294e+01 -3.52269e+01 -3.87114e+01
       E -3.99437e+01  1.43607e+01  5.33590e+00
       E  4.55852e+01  4.32972e+01 -5.75240e+00
3
# CELL(abcABC): 1322.94304  1322.94304  1322.94304    90.00000    90.00000    90.00000  Step:        7400  Bead:      23 positions{angstrom}  cell{angstrom}
       E -1.27365e+01 -5.69491e+01 -2.58754e+01
       E -2.01926e+01 -1.71734e+01 -9.91034e+00
       E  5.52291e+01  4.36315e+01  6.98833e+00
3
# CELL(abcABC): 1322.94304  1322.94304  1322.94304    90.00000    90.00000    90.00000  Step:        7500  Bead:      23 positions{angstrom}  cell{angstrom}
       E -1.40305e+01 -5.82193e+01 -6.67051e+01
       E -5.32028e+00 -5.10965e+01 -6.75488e+00
       E  6.49015e+01  1.49170e+00  2.31590e+01
3
# CELL(abcABC): 1322.94304  1322.94304  1322.94304    90.00000    90.00000    90.00000  Step:        7600  Bead:      23 positions{angstrom}  cell{angstrom}
       E -2.25541e+01 -6.25787e+01 -5.35165e+01
       E -5.04463e+01 -4.17169e+01  2.29951e+01
       E  4.31867e+01  1.52664e+01 -2.06763e+01
3
# CELL(abcABC): 1322.94304  1322.94304  1322.94304    90.00000    90.00000    90.00000  Step:        7700  Bead:      23 positions{angstrom}  cell{angstrom}
       E -3.08647e+01 -7.13983e+01 -5.83183e+01
       E -1.15241e+01 -3.09440e+01  9.93419e-03
       E  7.53785e+01 -3.03159e+00 -3.62223e+01
3
# CELL(abcABC): 1322.94304  1322.94304  1322.94304    90.00000    90.00000    90.00000  Step:        7800  Bead:      23 positions{angstrom}  cell{angstrom}
       E  2.75900e+01 -5.25628e+01 -3.99065e+01
       E -5.36251e-01 -1.28089e+01 -3.02757e+01
       E  6.27075e+01 -9.45970e+00 -1.88897e+01
3
# CELL(abcABC): 1322.94304  1322.94304  1322.94304    90.00000    90.00000    90.00000  Step:        7900  Bead:      23 positions{angstrom}  cell{angstrom}
       E  3.86597e+01 -3.67756e+01 -5.25960e+01
       E  2.81762e+01 -3.53347e+01 -4.81823e+01
       E  8.47137e+00 -3.45179e+01 -3.71336e+01
3
# CELL(abcABC): 1322.94304  1322.94304  1322.94304    90.00000    90.00000    90.00000  Step:        8000  Bead:      23 positions{angstrom}  cell{angstrom}
       E  3.14953e+01 -4.88964e+00 -5.47196e+00
       E -2.08553e+01  1.80075e+00 -4.89207e+01
       E  2.51965e+01 -1.24104e+01 -3.60004e+01
3
# CELL(abcABC): 1322.94304  1322.94304  1322.94304    90.00000    90.00000    90.00000  Step:        8100  Bead:      23 positions{angstrom}  cell{angstrom}
       E  1.52791e+01  4.23948e+01 -2.36077e+01
       E -4.70913e+01  1.66827e+01 -5.24770e+01
       E  1.37634e+01  4.35360e+00  1.30086e+01
3
# CELL(abcABC): 1322.94304  1322.94304  1322.94304    90.00000    90.00000    90.00000  Step:        8200  Bead:      23 positions{angstrom}  cell{angstrom}
       E  2.14876e+00  2.51010e+01  2.36547e+00
       E -1.90811e+01 -1.18035e+00 -2.84173e+01
       E -6.85255e+00 -3.59905e+01  2.41086e+01
3
# CELL(abcABC): 1322.94304  1322.94304  1322.94304    90.00000    90.00000    90.00000  Step:        8300  Bead:      23 positions{angstrom}  cell{angstrom}
       E -2.47797e+01  5.23825e+01 -3.48860e+00
       E  1.91542e+01  9.47457e+00 -1.24192e+01
       E  1.14497e+01 -4.58681e+01  3.44396e+01
3
# CELL(abcABC): 1322.94304  1322.94304  1322.94304    90.00000    90.00000    90.00000  Step:        8400  Bead:      23 positions{angstrom}  cell{angstrom}
       E -3.25884e+01  2.65514e+01  1.38384e+01
       E  1.66656e+01  2.18822e+01 -9.32328e+00
       E -2.83773e+01 -4.57463e+01  4.04964e+01
3
# CELL(abcABC): 1322.94304  1322.94304  1322.94304    90.00000    90.00000    90.00000  Step:        8500  Bead:      23 positions{angstrom}  cell{angstrom}
       E -2.95661e+01 -4.34627e+00 -1.87474e+01
       E  2.40981e+00  3.88440e+01 -3.69959e+00
       E  1.96022e+01 -3.40982e+01  7.25796e+01
3
# CELL(abcABC): 1322.94304  1322.94304  1322.94304    90.00000    90.00000    90.00000  Step:        8600  Bead:      23 positions{angstrom}  cell{angstrom}
       E -2.91218e+01  1.45947e-01 -2.34123e+01
       E  3.17214e+00  2.02850e+01  1.45398e+01
       E  4.44980e+01 -1.07685e+01  2.52931e+01
3
# CELL(abcABC): 1322.94304  1322.94304  1322.94304    90.00000    90.00000    90.00000  Step:        8700  Bead:      23 positions{angstrom}  cell{angstrom}
       E  1.73114e+01 -1.67959e+01 -9.75540e+00
       E  4.29355e+00 -2.64725e+01  1.67917e+01
       E  6.30979e+01 -6.12614e+00  8.70765e+00
3
# CELL(abcABC): 1322.94304  1322.94304  1322.94304    90.00000    90.00000    90.00000  Step:        8800  Bead:      23 positions{angstrom}  cell{angstrom}
       E -4.35804e+01  7.64499e+00 -2.28811e+01
       E -4.77627e+00 -3.22714e+01  1.58908e+01
       E  8.71748e+01 -3.22940e+01 -1.51780e+01
3
# CELL(abcABC): 1322.94304  1322.94304  1322.94304    90.00000    90.00000    90.00000  Step:        8900  Bead:      23 positions{angstrom}  cell{angstrom}
       E -5.89802e+01  2.15290e+01  1.40551e+01
       E  1.50439e+01 -3.52761e+01  1.25391e+01
       E  6.62513e+01 -6.73002e+01 -5.12557e+00
3
# CELL(abcABC): 1322.94304  1322.94304  1322.94304    90.00000    90.00000    90.00000  Step:        9000  Bead:      23 positions{angstrom}  cell{angstrom}
       E -3.23306e+01  8.60646e-01  1.55202e+01
       E  1.66625e+01 -7.03772e+00  5.63817e+01
       E  1.72866e+01 -6.81967e+01  4.98145e+00
3
# CELL(abcABC): 1322.94304  1322.94304  1322.94304    90.00000    90.00000    90.00000  Step:        9100  Bead:      23 positions{angstrom}  cell{angstrom}
       E -3.65800e+01  1.36181e+01  9.19866e+00
       E  1.04652e+01  8.30818e+00  4.67481e+01
       E  2.62278e+01 -2.86420e+01  1.86948e+01
3
# CELL(abcABC): 1322.94304  1322.94304  1322.94304    90.00000    90.00000    90.00000  Step:        9200  Bead:      23 positions{angstrom}  cell{angstrom}
       E  8.57136e+00  1.02071e+01 -2.67988e+01
       E -1.09673e+01  1.25386e+01  3.28685e+01
       E  4.12472e+01 -4.91843e+01  2.18410e+01
3
# CELL(abcABC): 1322.94304  1322.94304  1322.94304    90.00000    90.00000    90.00000  Step:        9300  Bead:      23 positions{angstrom}  cell{angstrom}
       E  3.84728e+01 -9.90220e+00 -6.09295e+01
       E -5.07979e+01 -2.08020e+01  2.34317e+01
       E  8.64541e+00 -2.92691e+01 -9.52497e+00
3
# CELL(abcABC): 1322.94304  1322.94304  1322.94304    90.00000    90.00000    90.00000  Step:        9400  Bead:      23 positions{angstrom}  cell{angstrom}
       E  1.63285e+01  2.25571e+01 -5.03080e+01
       E -7.11333e+00 -1.38751e+01  6.56154e+01
       E  2.65029e+01 -1.96482e+01 -9.22326e+00
3
# CELL(abcABC): 1322.94304  1322.94304  1322.94304    90.00000    90.00000    90.00000  Step:        9500  Bead:      23 positions{angstrom}  cell{angstrom}
       E  7.44387e+00  4.48096e+01 -4.44663e+01
       E  3.05431e+01 -2.94993e+01  4.68790e+01
       E  1.69519e+01 -4.36771e+01 -3.76864e+00
3
# CELL(abcABC): 1322.94304  1322.94304  1322.94304    90.00000    90.00000    90.00000  Step:        9600  Bead:      23 positions{angstrom}  cell{angstrom}
       E  2.45734e+01  2.49912e+00 -5.76643e+01
       E  2.18276e+01 -7.43971e+01 -1.36773e+01
       E  1.60454e+01 -1.13588e+01 -8.29571e+00
3
# CELL(abcABC): 1322.94304  1322.94304  1322.94304    90.00000    90.00000    90.00000  Step:        9700  Bead:      23 positions{angstrom}  cell{angstrom}
       E -4.25865e+00 -2.90147e+01 -6.83737e+01
       E  3.20010e+01 -6.51212e+01  8.12408e+00
       E -6.43474e+00  1.83583e+01 -1.31352e+01
3
# CELL(abcABC): 1322.94304  1322.94304  1322.94304    90.00000    90.00000    90.00000  Step:        9800  Bead:      23 positions{angstrom}  cell{angstrom}
       E -3.97543e+01 -5.39187e+01 -5.56682e+01
       E  1.89936e+01 -5.09278e+01  3.18859e+00
       E -1.80103e+01 -5.09002e+00  2.23178e+01
3