3
# CELL(abcABC): 1322.94304  1322.94304  1322.94304    90.00000    90.00000    90.00000  Step:           0  Bead:      18 positions{angstrom}  cell{angstrom}
       E  0.00000e+00  0.00000e+00  0.00000e+00
       E  0.00000e+00  0.00000e+00  0.00000e+00
       E  0.00000e+00  0.00000e+00  0.00000e+00
3
# CELL(abcABC): 1322.94304  1322.94304  1322.94304    90.00000    90.00000    90.00000  Step:         100  Bead:      18 positions{angstrom}  cell{angstrom}
       E  2.66579e+01 -1.25104e+01 -2.65802e+01
       E -7.45135e+00 -5.01147e+01 -1.78449e+01
       E -1.08987e+01  3.35707e+01 -3.23638e+01
3
# CELL(abcABC): 1322.94304  1322.94304  1322.94304    90.00000    90.00000    90.00000  Step:         200  Bead:      18 positions{angstrom}  cell{angstrom}
       E  1.33128e+01  8.94752e+00  7.73172e+00
       E  1.52399e+01 -4.70175e+01 -2.54414e+01
       E  6.25386e+00  4.23800e+01 -1.77559e+01
3
# CELL(abcABC): 1322.94304  1322.94304  1322.94304    90.00000    90.00000    90.00000  Step:         300  Bead:      18 positions{angstrom}  cell{angstrom}
       E  4.16568e+00 -1.22791e+01  1.99355e+01
       E  2.23486e+01 -1.81010e+00 -1.70706e+01
       E -1.91124e+01  5.96129e+01 -2.31236e+01
3
# CELL(abcABC): 1322.94304  1322.94304  1322.94304    90.00000    90.00000    90.00000  Step:         400  Bead:      18 positions{angstrom}  cell{angstrom}
       E -2.04666e+01  2.74080e+01  2.45038e+01
       E  7.20645e+01  7.82964e+00 -3.25678e+00
       E -3.99892e+01  4.02691e+01  2.83734e+00
3
# CELL(abcABC): 1322.94304  1322.94304  1322.94304    90.00000    90.00000    90.00000  Step:         500  Bead:      18 positions{angstrom}  cell{angstrom}
       E -7.68771e+00  1.58366e+00 -1.97867e+00
       E  5.26208e+01 -1.98248e+00 -1.65698e+00
       E -2.71494e+01 -1.06400e+01  3.44735e+01
3
# CELL(abcABC): 1322.94304  1322.94304  1322.94304    90.00000    90.00000    90.00000  Step:         600  Bead:      18 positions{angstrom}  cell{angstrom}
       E -1.24582e+00 -3.01254e+01 -3.11148e+01
       E  2.84618e+01  3.65937e+00 -1.69917e+01
       E -1.31407e+01 -1.15767e+01  3.65703e+01
3
# CELL(abcABC): 1322.94304  1322.94304  1322.94304    90.00000    90.00000    90.00000  Step:         700  Bead:      18 positions{angstrom}  cell{angstrom}
       E  1.09339e+01  6.77638e-01 -2.88860e+00
       E  5.75969e+01  1.16137e+01 -3.06572e+00
       E -6.17727e+00 -1.57372e+01  3.88184e+01
3
# CELL(abcABC): 1322.94304  1322.94304  1322.94304    90.00000    90.00000    90.00000  Step:         800  Bead:      18 positions{angstrom}  cell{angstrom}
       E -3.73338e+00  6.94833e+00 -9.50273e+00
       E  4.06531e+01  2.02956e+01  1.97714e+01
       E -3.13071e+01 -1.80871e+00  1.03565e+02
3
# CELL(abcABC): 1322.94304  1322.94304  1322.94304    90.00000    90.00000    90.00000  Step:         900  Bead:      18 positions{angstrom}  cell{angstrom}
       E -2.78003e+01  4.23898e+01 -7.40713e+01
       E  3.84450e+01  2.09471e+01 -2.04991e+01
       E -4.82207e+01 -1.04595e+01  8.95624e+01
3
# CELL(abcABC): 1322.94304  1322.94304  1322.94304    90.00000    90.00000    90.00000  Step:        1000  Bead:      18 positions{angstrom}  cell{angstrom}
       E  2.69794e+00  6.34755e+00 -6.28583e+01
       E  9.01383e-01 -8.48157e+00 -4.43464e+01
       E -5.16104e+01 -1.19930e+01  8.55347e+01
3
# CELL(abcABC): 1322.94304  1322.94304  1322.94304    90.00000    90.00000    90.00000  Step:        1100  Bead:      18 positions{angstrom}  cell{angstrom}
       E  3.66612e+01 -1.29873e+01 -6.73373e+01
       E  2.54831e+01  4.77401e+00 -4.88503e+01
       E -3.92143e+01  2.96982e+01  5.85275e+01
3
# CELL(abcABC): 1322.94304  1322.94304  1322.94304    90.00000    90.00000    90.00000  Step:        1200  Bead:      18 positions{angstrom}  cell{angstrom}
       E  4.32579e+00  2.28237e+01 -8.93754e+01
       E  3.95466e+01 -2.20500e+01 -2.94965e+01
       E -1.12090e+01  5.89223e+01  2.66133e+01
3
# CELL(abcABC): 1322.94304  1322.94304  1322.94304    90.00000    90.00000    90.00000  Step:        1300  Bead:      18 positions{angstrom}  cell{angstrom}
       E -1.43366e+01  3.66260e+01 -7.07451e+01
       E  5.12209e+01 -3.95883e+01 -4.49787e+01
       E -1.15171e+01  1.20042e+01  5.27309e+00
3
# CELL(abcABC): 1322.94304  1322.94304  1322.94304    90.00000    90.00000    90.00000  Step:        1400  Bead:      18 positions{angstrom}  cell{angstrom}
       E -7.69936e+00  3.27178e+01 -5.54881e+01
       E  1.34772e+01 -7.72082e-01 -5.51998e+01
       E -5.35746e+00  2.89036e+00  1.84420e+01
3
# CELL(abcABC): 1322.94304  1322.94304  1322.94304    90.00000    90.00000    90.00000  Step:        1500  Bead:      18 positions{angstrom}  cell{angstrom}
       E  6.12591e+00  4.87820e+01 -4.35212e+01
       E -2.25787e+01  1.42624e+01 -2.13101e+01
       E -2.96937e+01  2.15404e+01  1.19460e+00
3
# CELL(abcABC): 1322.94304  1322.94304  1322.94304    90.00000    90.00000    90.00000  Step:        1600  Bead:      18 positions{angstrom}  cell{angstrom}
       E -2.60362e+01  1.66385e+01 -3.60881e+01
       E -4.91594e+00  1.65740e+01 -2.04787e+01
       E -9.67079e+00  2.20282e+01 -1.25296e+00
3
# CELL(abcABC): 1322.94304  1322.94304  1322.94304    90.00000    90.00000    90.00000  Step:        1700  Bead:      18 positions{angstrom}  cell{angstrom}
       E -4.50874e+00  4.27137e+01  1.11727e+01
       E -3.32009e+01  3.37671e+01  1.75672e+01
       E -2.02949e+01  6.21556e+01  4.10841e+01
3
# CELL(abcABC): 1322.94304  1322.94304  1322.94304    90.00000    90.00000    90.00000  Step:        1800  Bead:      18 positions{angstrom}  cell{angstrom}
       E -2.56731e+00  3.01841e+01  4.20765e+01
       E -6.17218e+01  4.48448e+01  1.75861e+01
       E -6.93342e+01  8.79035e+01  4.86435e+01
3
# CELL(abcABC): 1322.94304  1322.94304  1322.94304    90.00000    90.00000    90.00000  Step:        1900  Bead:      18 positions{angstrom}  cell{angstrom}
       E  2.44884e+01  6.26796e+00  5.78045e+01
       E -6.15750e+01  2.98570e+01  2.55482e+01
       E -1.02957e+02  6.98661e+01  8.33718e+00
3
# CELL(abcABC): 1322.94304  1322.94304  1322.94304    90.00000    90.00000    90.00000  Step:        2000  Bead:      18 positions{angstrom}  cell{angstrom}
       E -2.08948e+01 -2.41193e+01  6.82805e+01
       E -7.16664e+01  2.13465e+01  1.59352e+01
       E -8.46409e+01  8.75679e+01  2.89375e+01
3
# CELL(abcABC): 1322.94304  1322.94304  1322.94304    90.00000    90.00000    90.00000  Step:        2100  Bead:      18 positions{angstrom}  cell{angstrom}
       E -3.52947e+01 -7.46527e+00  4.61570e+01
       E -4.88100e+01  5.05477e+00  2.34317e+01
       E -9.70312e+01  1.08810e+02  2.11546e+01
3
# CELL(abcABC): 1322.94304  1322.94304  1322.94304    90.00000    90.00000    90.00000  Step:        2200  Bead:      18 positions{angstrom}  cell{angstrom}
       E -1.99240e+01 -2.23349e+01  4.02775e+01
       E -1.36555e+01 -4.34695e+01 -1.56633e+01
       E -6.95333e+01  6.75006e+01  1.43113e+01
3
# CELL(abcABC): 1322.94304  1322.94304  1322.94304    90.00000    90.00000    90.00000  Step:        2300  Bead:      18 positions{angstrom}  cell{angstrom}
       E -5.54050e+01 -4.24674e+01  4.99892e+01
       E -8.48443e+00 -1.54887e+01  6.88308e+00
       E -1.38496e+01  4.22025e+01  1.88990e+01
3
# CELL(abcABC): 1322.94304  1322.94304  1322.94304    90.00000    90.00000    90.00000  Step:        2400  Bead:      18 positions{angstrom}  cell{angstrom}
       E -4.54376e+01 -5.05618e+01  1.78963e+01
       E -1.44089e+01 -1.05114e+01 -2.09143e+01
       E -1.62495e+01  4.35117e+01  2.66028e+01
3
# CELL(abcABC): 1322.94304  1322.94304  1322.94304    90.00000    90.00000    90.00000  Step:        2500  Bead:      18 positions{angstrom}  cell{angstrom}
       E -4.31572e+01 -1.26900e+01 -9.76970e+00
       E -1.11980e+01 -7.29802e+01 -6.81308e+01
       E  1.76419e+01  1.74481e+01  4.71922e+01
3
# CELL(abcABC): 1322.94304  1322.94304  1322.94304    90.00000    90.00000    90.00000  Step:        2600  Bead:      18 positions{angstrom}  cell{angstrom}
       E -2.54662e+01 -3.97152e+00  6.82556e+00
       E -5.23909e+01 -4.95532e+01 -6.65859e+01
       E -4.88763e+00 -2.67887e+01  4.74343e+01
3
# CELL(abcABC): 1322.94304  1322.94304  1322.94304    90.00000    90.00000    90.00000  Step:        2700  Bead:      18 positions{angstrom}  cell{angstrom}
       E -6.93999e+00  3.65598e+00  2.86748e+01
       E -6.15659e+01 -3.15809e+01 -2.34173e+01
       E  2.30837e+01 -4.95016e+00  3.31763e+01
3
# CELL(abcABC): 1322.94304  1322.94304  1322.94304    90.00000    90.00000    90.00000  Step:        2800  Bead:      18 positions{angstrom}  cell{angstrom}
       E -5.14179e+01  4.54573e+00  5.18672e+01
       E -8.43237e+01 -5.53128e+01 -5.90038e+01
       E  1.75024e+01 -1.50635e+01  2.62879e+01
3
# CELL(abcABC): 1322.94304  1322.94304  1322.94304    90.00000    90.00000    90.00000  Step:        2900  Bead:      18 positions{angstrom}  cell{angstrom}
       E -5.81732e+01 -6.92672e+00  5.72582e+01
       E -8.68549e+01 -6.39958e+01 -1.39909e+01
       E  1.88985e+01  2.27598e+01 -1.05629e+01
3
# CELL(abcABC): 1322.94304  1322.94304  1322.94304    90.00000    90.00000    90.00000  Step:        3000  Bead:      18 positions{angstrom}  cell{angstrom}
       E -3.16335e+01 -2.05757e+01  6.08897e+01
       E -5.33034e+01 -6.67046e+01  1.39469e+01
       E  2.66480e+01  3.71687e+01  3.57126e+01
3
# CELL(abcABC): 1322.94304  1322.94304  1322.94304    90.00000    90.00000    90.00000  Step:        3100  Bead:      18 positions{angstrom}  cell{angstrom}
       E -7.17683e+01 -2.54092e+01  5.80645e+01
       E -7.24315e+01 -5.21911e+01  1.23569e+01
       E  4.84038e+01  5.28756e+01  4.25401e+01
3
# CELL(abcABC): 1322.94304  1322.94304  1322.94304    90.00000    90.00000    90.00000  Step:        3200  Bead:      18 positions{angstrom}  cell{angstrom}
       E -4.19861e+01  7.16028e+00  4.71979e+00
       E -9.92854e+01 -3.71781e+01  4.42881e+01
       E  8.00742e+01  5.51842e+01  4.17556e+01
3
# CELL(abcABC): 1322.94304  1322.94304  1322.94304    90.00000    90.00000    90.00000  Step:        3300  Bead:      18 positions{angstrom}  cell{angstrom}
       E -4.32877e+01 -3.69406e+00  2.77882e+01
       E -8.42144e+01 -7.59642e+01  3.79868e+01
       E  4.63531e+01  9.18358e+01  3.38671e+01
3
# CELL(abcABC): 1322.94304  1322.94304  1322.94304    90.00000    90.00000    90.00000  Step:        3400  Bead:      18 positions{angstrom}  cell{angstrom}
       E -7.23967e+01 -5.92700e+00  6.83322e+01
       E -8.49833e+01 -2.37670e+01  4.66236e+01
       E  2.40410e+01  7.85815e+01  3.33527e+01
3
# CELL(abcABC): 1322.94304  1322.94304  1322.94304    90.00000    90.00000    90.00000  Step:        3500  Bead:      18 positions{angstrom}  cell{angstrom}
       E -1.12771e+02  5.41335e+00  2.82153e+01
       E -3.60239e+01 -3.23098e+01  2.76271e+01
       E  1.27180e+01  3.00883e+01  5.06486e+01
3
# CELL(abcABC): 1322.94304  1322.94304  1322.94304    90.00000    90.00000    90.00000  Step:        3600  Bead:      18 positions{angstrom}  cell{angstrom}
       E -7.63459e+01  8.16123e-01  2.65830e+01
       E -1.01983e+01 -2.54377e+01  2.26784e+01
       E -7.45775e+00  3.84182e+01  3.11876e+01
3
# CELL(abcABC): 1322.94304  1322.94304  1322.94304    90.00000    90.00000    90.00000  Step:        3700  Bead:      18 positions{angstrom}  cell{angstrom}
       E -7.43101e+01 -4.82432e+00 -3.61441e+01
       E -2.20275e+00 -1.04329e+01  2.13430e+01
       E -4.89879e+01  4.60061e+01 -1.44663e+01
3
# CELL(abcABC): 1322.94304  1322.94304  1322.94304    90.00000    90.00000    90.00000  Step:        3800  Bead:      18 positions{angstrom}  cell{angstrom}
       E -1.01247e+02 -2.27905e+01 -2.64930e+01
       E -1.65435e+01 -6.25357e+01 -9.05842e+00
       E -5.81902e+01  3.80988e+01 -2.36831e+01
3
# CELL(abcABC): 1322.94304  1322.94304  1322.94304    90.00000    90.00000    90.00000  Step:        3900  Bead:      18 positions{angstrom}  cell{angstrom}
       E -1.22498e+02  7.30295e+00 -2.72878e+01
       E -3.78085e+01 -3.62678e+01 -4.37292e+00
       E -2.80272e+01  1.91807e+01 -1.59419e+01
3
# CELL(abcABC): 1322.94304  1322.94304  1322.94304    90.00000    90.00000    90.00000  Step:        4000  Bead:      18 positions{angstrom}  cell{angstrom}
       E -1.32409e+02  2.84470e+01 -4.72815e+01
       E -2.64231e+01 -1.94127e+01  3.22697e+01
       E -7.22073e+00  3.44575e+01  4.50064e+01
3
# CELL(abcABC): 1322.94304  1322.94304  1322.94304    90.00000    90.00000    90.00000  Step:        4100  Bead:      18 positions{angstrom}  cell{angstrom}
       E -7.65091e+01  3.17135e+01 -9.63244e+01
       E -5.48989e+01  1.89037e+01 -1.40267e+01
       E  2.08532e+00 -2.05833e+01  3.80398e+01
3
# CELL(abcABC): 1322.94304  1322.94304  1322.94304    90.00000    90.00000    90.00000  Step:        4200  Bead:      18 positions{angstrom}  cell{angstrom}
       E -8.59991e+01 -5.72287e+00 -1.00383e+02
       E -6.58616e+01  3.50361e+01  3.95454e+01
       E  1.29159e+01 -2.47960e+01  4.83202e+01
3
# CELL(abcABC): 1322.94304  1322.94304  1322.94304    90.00000    90.00000    90.00000  Step:        4300  Bead:      18 positions{angstrom}  cell{angstrom}
       E -4.36996e+01  5.73332e+01 -4.13714e+01
       E -4.33355e+01  9.75509e+00  1.04545e+01
       E  3.72518e+01 -2.68981e+01  4.21881e+01
3
# CELL(abcABC): 1322.94304  1322.94304  1322.94304    90.00000    90.00000    90.00000  Step:        4400  Bead:      18 positions{angstrom}  cell{angstrom}
       E -5.87506e+01  1.07452e+01 -6.03542e+01
       E -1.02785e+01  7.66994e+01 -7.90201e+00
       E  2.41911e+01 -2.77599e+01  4.27170e+00
3
# CELL(abcABC): 1322.94304  1322.94304  1322.94304    90.00000    90.00000    90.00000  Step:        4500  Bead:      18 positions{angstrom}  cell{angstrom}
       E -4.13028e+01  2.28845e+01 -9.08771e+01
       E -3.48550e+01  8.84653e+01  1.89852e+00
       E  3.94574e+00 -3.86084e+01  3.27937e+01
3
# CELL(abcABC): 1322.94304  1322.94304  1322.94304    90.00000    90.00000    90.00000  Step:        4600  Bead:      18 positions{angstrom}  cell{angstrom}
       E -1.56030e+01  2.16563e+01 -7.25685e+01
       E -5.45911e+01  1.19922e+02 -5.74516e+00
       E  1.19167e+01 -4.81877e+00  4.60361e+00
3
# CELL(abcABC): 1322.94304  1322.94304  1322.94304    90.00000    90.00000    90.00000  Step:        4700  Bead:      18 positions{angstrom}  cell{angstrom}
       E -2.57036e+01  3.49024e+01 -2.76473e+01
       E -4.67194e+01  6.77564e+01  3.34563e-01
       E  1.79777e+01  6.06325e+00 -3.02863e+01
3
# CELL(abcABC): 1322.94304  1322.94304  1322.94304    90.00000    90.00000    90.00000  Step:        4800  Bead:      18 positions{angstrom}  cell{angstrom}
       E -3.89658e+01 -2.35449e+00 -2.71297e+01
       E -4.29197e+01  2.07729e+01 -1.30638e+01
       E  4.32352e+01 -1.99887e+01  2.33708e+01
3
# CELL(abcABC): 1322.94304  1322.94304  1322.94304    90.00000    90.00000    90.00000  Step:        4900  Bead:      18 positions{angstrom}  cell{angstrom}
       E  2.47770e+01  5.43202e+00  1.38455e+01
       E -2.83801e+01  1.69482e+01 -2.36960e+01
       E  4.09797e+01 -1.96594e+01  1.41712e+01
3
# CELL(abcABC): 1322.94304  1322.94304  1322.94304    90.00000    90.00000    90.00000  Step:        5000  Bead:      18 positions{angstrom}  cell{angstrom}
       E  3.20426e+01  7.15581e+00  1.68279e+01
       E -3.13446e+01  1.42456e+00 -2.51117e+01
       E  1.13425e+01 -1.72630e+00 -1.82569e+01
3
# CELL(abcABC): 1322.94304  1322.94304  1322.94304    90.00000    90.00000    90.00000  Step:        5100  Bead:      18 positions{angstrom}  cell{angstrom}
       E  1.48136e+01  2.30068e+01  1.46531e+01
       E -5.84814e+01  1.21765e+01 -4.26870e+01
       E -5.13105e+00 -2.58817e+01 -3.60691e+01
3
# CELL(abcABC): 1322.94304  1322.94304  1322.94304    90.00000    90.00000    90.00000  Step:        5200  Bead:      18 positions{angstrom}  cell{angstrom}
       E -5.35318e+00  2.17289e+01  1.79930e+01
       E -3.84765e+01  1.04662e+01 -1.77799e+01
       E -1.58482e+01  4.35346e+01 -1.46013e+01
3
# CELL(abcABC): 1322.94304  1322.94304  1322.94304    90.00000    90.00000    90.00000  Step:        5300  Bead:      18 positions{angstrom}  cell{angstrom}
       E  1.44093e+00  1.16626e+01  2.24815e+01
       E -1.00845e+01  3.45684e+01 -1.61328e+01
       E -3.51139e+01  5.86621e+01  6.44813e+00
3
# CELL(abcABC): 1322.94304  1322.94304  1322.94304    90.00000    90.00000    90.00000  Step:        5400  Bead:      18 positions{angstrom}  cell{angstrom}
       E  6.01284e+00 -3.56336e+01  2.53452e+01
       E  8.21045e+00  2.13422e+00  2.66489e-01
       E -4.21330e+01  2.33318e+01  6.11577e+01
3
# CELL(abcABC): 1322.94304  1322.94304  1322.94304    90.00000    90.00000    90.00000  Step:        5500  Bead:      18 positions{angstrom}  cell{angstrom}
       E  1.65160e+01 -7.37928e+00 -1.25656e+01
       E -2.27467e+01  4.07649e+00 -6.64400e+00
       E -5.05595e+01 -2.26760e+01  8.07757e+01
3
# CELL(abcABC): 1322.94304  1322.94304  1322.94304    90.00000    90.00000    90.00000  Step:        5600  Bead:      18 positions{angstrom}  cell{angstrom}
       E  1.12814e+00 -9.09110e+00 -9.36719e+00
       E -6.79717e+01 -2.93832e+01  1.98807e+01
       E -3.95769e+01  6.26713e+00  2.14273e+01
3
# CELL(abcABC): 1322.94304  1322.94304  1322.94304    90.00000    90.00000    90.00000  Step:        5700  Bead:      18 positions{angstrom}  cell{angstrom}
       E  1.34282e+01 -5.01023e+01 -4.59096e+01
       E -6.11076e+01  1.32567e+01 -3.87024e+00
       E -6.19852e+01 -1.13992e+01  8.24723e-01
3
# CELL(abcABC): 1322.94304  1322.94304  1322.94304    90.00000    90.00000    90.00000  Step:        5800  Bead:      18 positions{angstrom}  cell{angstrom}
       E  2.17789e+01 -8.62116e+00 -1.70646e+01
       E -2.52986e+01  3.22722e+01 -3.20776e+01
       E -4.76899e+01  2.27071e+01  9.09848e+00
3
# CELL(abcABC): 1322.94304  1322.94304  1322.94304    90.00000    90.00000    90.00000  Step:        5900  Bead:      18 positions{angstrom}  cell{angstrom}
       E  3.72394e+01  1.69749e+00 -2.09151e+01
       E -2.08236e+01 -6.88808e+00  1.54783e+01
       E -9.92283e+00 -2.63921e+01 -2.60929e+01
3
# CELL(abcABC): 1322.94304  1322.94304  1322.94304    90.00000    90.00000    90.00000  Step:        6000  Bead:      18 positions{angstrom}  cell{angstrom}
       E  8.02003e+00 -3.96603e+01  1.22625e+01
       E  1.43169e+01  1.06177e+01  1.18887e+01
       E -1.50522e+01 -1.89067e+01  5.33002e-01
3
# CELL(abcABC): 1322.94304  1322.94304  1322.94304    90.00000    90.00000    90.00000  Step:        6100  Bead:      18 positions{angstrom}  cell{angstrom}
       E -1.52790e+01 -3.80770e+01 -3.72544e+01
       E  5.03597e+01  2.40109e+00  1.52664e+01
       E  2.42755e+01  5.76080e+00 -3.16375e+01
3
# CELL(abcABC): 1322.94304  1322.94304  1322.94304    90.00000    90.00000    90.00000  Step:        6200  Bead:      18 positions{angstrom}  cell{angstrom}
       E  9.73276e-01 -2.67579e+01 -8.19200e+01
       E  9.50119e+01  1.91024e+01  1.84894e+01
       E  1.16815e+01 -3.66385e+01  1.53344e+01
3
# CELL(abcABC): 1322.94304  1322.94304  1322.94304    90.00000    90.00000    90.00000  Step:        6300  Bead:      18 positions{angstrom}  cell{angstrom}
       E -3.49157e+00 -2.45430e+01 -9.16240e+01
       E  1.05583e+02  6.84267e+00 -2.62428e+01
       E  3.86762e+00 -2.77819e+01  6.12846e+00
3
# CELL(abcABC): 1322.94304  1322.94304  1322.94304    90.00000    90.00000    90.00000  Step:        6400  Bead:      18 positions{angstrom}  cell{angstrom}
       E  2.87677e+01 -3.30465e+01 -1.11648e+02
       E  3.97585e+01  1.96425e+01 -4.29752e+01
       E  2.34005e+01 -1.55438e+01 -1.09343e+01
3
# CELL(abcABC): 1322.94304  1322.94304  1322.94304    90.00000    90.00000    90.00000  Step:        6500  Bead:      18 positions{angstrom}  cell{angstrom}
       E  2.15748e+01 -6.16700e+01 -9.92465e+01
       E  1.86505e+01  2.04021e+01 -2.08699e+01
       E  4.06675e+01 -1.06146e+01 -2.44378e+01
3
# CELL(abcABC): 1322.94304  1322.94304  1322.94304    90.00000    90.00000    90.00000  Step:        6600  Bead:      18 positions{angstrom}  cell{angstrom}
       E  2.19182e+01 -7.93786e+01 -6.48400e+01
       E  2.33628e+01 -4.08176e+00 -3.04407e+01
       E  5.03152e+01 -1.54654e+01  5.76052e+00
3
# CELL(abcABC): 1322.94304  1322.94304  1322.94304    90.00000    90.00000    90.00000  Step:        6700  Bead:      18 positions{angstrom}  cell{angstrom}
       E -3.26708e+00 -1.13065e+02 -5.75037e+01
       E  1.79780e+01  1.06963e+01 -9.07633e+00
       E  1.72829e+01 -1.28901e+00  4.15013e+01
3
# CELL(abcABC): 1322.94304  1322.94304  1322.94304    90.00000    90.00000    90.00000  Step:        6800  Bead:      18 positions{angstrom}  cell{angstrom}
       E -1.20942e+01 -9.64775e+01 -6.64163e+01
       E  8.78077e+00 -2.88374e+01 -3.16895e+01
       E -1.91132e+00 -1.73196e+01 -9.01309e+00
3
# CELL(abcABC): 1322.94304  1322.94304  1322.94304    90.00000    90.00000    90.00000  Step:        6900  Bead:      18 positions{angstrom}  cell{angstrom}
       E  7.52127e+00 -6.85011e+01 -2.75945e+01
       E  1.94090e+01 -4.54714e+01 -3.39903e+01
       E -2.11965e+01 -1.35661e+01 -1.88382e+01
3
# CELL(abcABC): 1322.94304  1322.94304  1322.94304    90.00000    90.00000    90.00000  Step:        7000  Bead:      18 positions{angstrom}  cell{angstrom}
       E  5.35511e+01 -5.60867e+01  1.55827e+01
       E  2.60209e+01 -1.76685e+01 -3.58414e+01
       E -2.12277e-01  1.84806e+01 -3.43954e+01
3
# CELL(abcABC): 1322.94304  1322.94304  1322.94304    90.00000    90.00000    90.00000  Step:        7100  Bead:      18 positions{angstrom}  cell{angstrom}
       E  4.04356e+01 -2.88124e+01 -2.47433e+00
       E  5.00789e+00 -1.58087e+01  9.20189e+00
       E  6.00511e+01  2.21606e+01 -5.78551e+01
3
# CELL(abcABC): 1322.94304  1322.94304  1322.94304    90.00000    90.00000    90.00000  Step:        7200  Bead:      18 positions{angstrom}  cell{angstrom}
       E  4.30891e+01 -4.50066e+01 -5.08872e+01
       E -3.44514e+01  3.46753e+01  4.29562e+01
       E  3.22494e+01  4.75389e+01 -2.09348e+01
3
# CELL(abcABC): 1322.94304  1322.94304  1322.94304    90.00000    90.00000    90.00000  Step:        7300  Bead:      18 positions{angstrom}  cell{angstrom}
       E  3.79536e+01 -2.43173e+01 -5.62082e+01
       E -3.64544e+01  3.09050e+01  4.39045e+01
       E  4.48745e+01  5.54079e+01 -2.80085e+01
3
# CELL(abcABC): 1322.94304  1322.94304  1322.94304    90.00000    90.00000    90.00000  Step:        7400  Bead:      18 positions{angstrom}  cell{angstrom}
       E -2.84486e-01 -4.08500e+01 -3.69445e+01
       E -2.86173e+01  2.08523e+01  7.42226e+00
       E  4.87971e+01  3.25451e+01 -4.20283e+00
3
# CELL(abcABC): 1322.94304  1322.94304  1322.94304    90.00000    90.00000    90.00000  Step:        7500  Bead:      18 positions{angstrom}  cell{angstrom}
       E  1.20021e+01 -7.22100e+01 -5.61448e+01
       E -5.50461e+01 -1.66093e+01  3.83976e+00
       E  9.12667e+01  5.08852e+01 -1.80387e+01
3
# CELL(abcABC): 1322.94304  1322.94304  1322.94304    90.00000    90.00000    90.00000  Step:        7600  Bead:      18 positions{angstrom}  cell{angstrom}
       E  7.13841e-01 -7.25241e+01 -3.80546e+01
       E -1.12055e+01 -3.62876e+01 -4.17647e+00
       E  2.48459e+01  2.34655e+01 -2.35957e+01
3
# CELL(abcABC): 1322.94304  1322.94304  1322.94304    90.00000    90.00000    90.00000  Step:        7700  Bead:      18 positions{angstrom}  cell{angstrom}
       E  1.36736e+01 -5.49618e+01 -2.77453e+01
       E -2.30915e+01 -4.12985e+01 -3.48042e+01
       E  6.22778e+01  7.76440e+00 -2.97589e+01
3
# CELL(abcABC): 1322.94304  1322.94304  1322.94304    90.00000    90.00000    90.00000  Step:        7800  Bead:      18 positions{angstrom}  cell{angstrom}
       E  1.48322e+01 -8.27161e+01 -7.10023e+01
       E -4.50158e+00 -3.45891e+01 -9.52065e+00
       E  2.43373e+01 -1.30639e+01 -2.10848e+01
3
# CELL(abcABC): 1322.94304  1322.94304  1322.94304    90.00000    90.00000    90.00000  Step:        7900  Bead:      18 positions{angstrom}  cell{angstrom}
       E  2.02792e+01 -5.21854e+01 -3.54708e+01
       E -1.36746e+01 -1.62790e+01 -3.98646e+01
       E -8.51065e+00 -2.20770e+01 -5.69386e+01
3
# CELL(abcABC): 1322.94304  1322.94304  1322.94304    90.00000    90.00000    90.00000  Step:        8000  Bead:      18 positions{angstrom}  cell{angstrom}
       E  5.66775e+00 -6.70426e+00 -9.70704e+00
       E -2.42052e+01 -7.16808e+00 -8.43669e+00
       E  4.91904e+01 -2.63189e+01 -2.80873e+01
3
# CELL(abcABC): 1322.94304  1322.94304  1322.94304    90.00000    90.00000    90.00000  Step:        8100  Bead:      18 positions{angstrom}  cell{angstrom}
       E -1.53107e+01  2.93840e+00 -5.96734e+01
       E -3.38996e+01  7.27329e+00 -3.88369e+00
       E  3.56073e+01 -2.82060e+00 -1.09217e+01
3
# CELL(abcABC): 1322.94304  1322.94304  1322.94304    90.00000    90.00000    90.00000  Step:        8200  Bead:      18 positions{angstrom}  cell{angstrom}
       E -6.48713e+00  2.66032e+01 -5.93373e+01
       E -3.06970e+01 -2.80733e+01 -1.94970e+01
       E  3.23469e+00 -5.10913e+01  5.68903e+01
3
# CELL(abcABC): 1322.94304  1322.94304  1322.94304    90.00000    90.00000    90.00000  Step:        8300  Bead:      18 positions{angstrom}  cell{angstrom}
       E  2.60450e+01  2.90705e+01 -3.69396e+01
       E -3.28083e+01  5.24245e+00 -1.69708e+01
       E  1.10910e+01 -4.43373e+01  4.68865e+01
3
# CELL(abcABC): 1322.94304  1322.94304  1322.94304    90.00000    90.00000    90.00000  Step:        8400  Bead:      18 positions{angstrom}  cell{angstrom}
       E -1.43420e+01  1.83425e+01 -1.79781e+01
       E  2.26504e+01  3.87284e+01  3.55092e+00
       E  1.32016e-01 -5.19792e+01  5.39082e+01
3
# CELL(abcABC): 1322.94304  1322.94304  1322.94304    90.00000    90.00000    90.00000  Step:        8500  Bead:      18 positions{angstrom}  cell{angstrom}
       E -1.55844e+01 -3.76953e+01 -9.00683e+00
       E  3.49542e+01  1.17923e+01 -4.31073e+01
       E  1.60024e+01 -3.48624e+01  4.94746e+01
3
# CELL(abcABC): 1322.94304  1322.94304  1322.94304    90.00000    90.00000    90.00000  Step:        8600  Bead:      18 positions{angstrom}  cell{angstrom}
       E -3.36967e+00 -1.77355e+01 -2.37238e+01
       E  2.54883e+01  7.28517e+00 -1.71427e+01
       E  1.10527e+01 -2.49793e+01  5.72597e+01
3
# CELL(abcABC): 1322.94304  1322.94304  1322.94304    90.00000    90.00000    90.00000  Step:        8700  Bead:      18 positions{angstrom}  cell{angstrom}
       E  3.40670e+00 -1.34977e+01  1.23920e+01
       E  1.56943e+01  1.94345e+01 -3.15391e+01
       E  4.80056e+01 -2.75549e+01  4.71907e+01
3
# CELL(abcABC): 1322.94304  1322.94304  1322.94304    90.00000    90.00000    90.00000  Step:        8800  Bead:      18 positions{angstrom}  cell{angstrom}
       E  5.41685e+00  3.36968e+01 -1.46967e+00
       E  1.63348e+01 -7.66145e+00 -2.08352e+01
       E  6.65991e+01 -5.82915e+01  2.56273e+01
3
# CELL(abcABC): 1322.94304  1322.94304  1322.94304    90.00000    90.00000    90.00000  Step:        8900  Bead:      18 positions{angstrom}  cell{angstrom}
       E -4.82797e+01  3.80176e+01  1.60955e+01
       E -1.15330e+01 -1.16183e+01  1.05161e+00
       E  5.91489e+01 -6.65489e+01  1.51855e+01
3
# CELL(abcABC): 1322.94304  1322.94304  1322.94304    90.00000    90.00000    90.00000  Step:        9000  Bead:      18 positions{angstrom}  cell{angstrom}
       E -4.68692e+01  2.63673e+01  3.34450e+01
       E  1.31980e+01  1.28901e+01  6.41867e+01
       E  3.97533e+01 -3.50227e+01  3.17618e+01
3
# CELL(abcABC): 1322.94304  1322.94304  1322.94304    90.00000    90.00000    90.00000  Step:        9100  Bead:      18 positions{angstrom}  cell{angstrom}
       E -1.43139e+01  1.52765e+01  1.42519e+01
       E  1.14481e+01 -2.10850e+01  7.37994e+01
       E  3.84935e+01 -1.46225e+01  1.94157e+01
3
# CELL(abcABC): 1322.94304  1322.94304  1322.94304    90.00000    90.00000    90.00000  Step:        9200  Bead:      18 positions{angstrom}  cell{angstrom}
       E  2.74920e+01  7.95913e+00  2.25983e+01
       E -1.68392e+01 -7.83072e+00  4.49936e+01
       E  2.59625e+01 -5.25252e+01  8.04524e+00
3
# CELL(abcABC): 1322.94304  1322.94304  1322.94304    90.00000    90.00000    90.00000  Step:        9300  Bead:      18 positions{angstrom}  cell{angstrom}
       E -1.68015e+01  3.80072e+00 -9.24909e+00
       E -3.98076e+01  1.69586e+01  1.38278e+01
       E -6.87965e+00 -5.24068e+01 -2.57204e+00
3
# CELL(abcABC): 1322.94304  1322.94304  1322.94304    90.00000    90.00000    90.00000  Step:        9400  Bead:      18 positions{angstrom}  cell{angstrom}
       E -1.68708e+01  4.82447e+01 -1.94944e+01
       E -4.38254e+01 -2.00023e+01  2.74847e+01
       E  6.70188e+00 -5.17016e+01  2.57790e+01
3
# CELL(abcABC): 1322.94304  1322.94304  1322.94304    90.00000    90.00000    90.00000  Step:        9500  Bead:      18 positions{angstrom}  cell{angstrom}
       E  3.34541e+01  6.47521e+01 -5.15505e+01
       E -2.04507e+01 -4.37294e+01 -7.00771e-01
       E  2.18591e+01 -2.57074e+01  4.05716e+01
3
# CELL(abcABC): 1322.94304  1322.94304  1322.94304    90.00000    90.00000    90.00000  Step:        9600  Bead:      18 positions{angstrom}  cell{angstrom}
       E  1.54736e+01  1.79647e+01 -4.95003e+01
       E  1.61152e+01 -5.67419e+01  2.85408e+01
       E -1.26236e+01 -3.63288e+01  2.25841e+01
3
# CELL(abcABC): 1322.94304  1322.94304  1322.94304    90.00000    90.00000    90.00000  Step:        9700  Bead:      18 positions{angstrom}  cell{angstrom}
       E  1.11365e+01 -4.08581e+01 -4.23042e+01
       E  1.42450e+01 -7.04465e+01  1.80995e+01
       E -7.23805e+00  8.83041e+00  5.36930e+00
3
# CELL(abcABC): 1322.94304  1322.94304  1322.94304    90.00000    90.00000    90.00000  Step:        9800  Bead:      18 positions{angstrom}  cell{angstrom}
       E -2.78487e+01 -6.33122e+01 -2.44832e+01
       E  5.51337e+00 -9.39731e+01  9.54576e+00
       E  9.27955e+00 -2.68029e+01  4.74720e+01
3