3
# CELL(abcABC): 1322.94304  1322.94304  1322.94304    90.00000    90.00000    90.00000  Step:           0  Bead:       9 positions{angstrom}  cell{angstrom}
       E  0.00000e+00  0.00000e+00  0.00000e+00
       E  0.00000e+00  0.00000e+00  0.00000e+00
       E  0.00000e+00  0.00000e+00  0.00000e+00
3
# CELL(abcABC): 1322.94304  1322.94304  1322.94304    90.00000    90.00000    90.00000  Step:         100  Bead:       9 positions{angstrom}  cell{angstrom}
       E -2.26067e+01  7.13949e+00  4.25001e+00
       E -1.39962e+01 -2.25250e+00 -3.11546e+01
       E -2.70354e+01  1.22161e+01 -7.93046e+00
3
# CELL(abcABC): 1322.94304  1322.94304  1322.94304    90.00000    90.00000    90.00000  Step:         200  Bead:       9 positions{angstrom}  cell{angstrom}
       E -1.41697e+01 -3.41686e+01 -4.95035e+01
       E  5.06901e+01  3.31264e+00 -4.41911e+01
       E -2.84848e+01  2.87663e+00 -1.14718e+01
3
# CELL(abcABC): 1322.94304  1322.94304  1322.94304    90.00000    90.00000    90.00000  Step:         300  Bead:       9 positions{angstrom}  cell{angstrom}
       E -2.50059e+01 -2.52313e+01 -3.53243e+01
       E  2.68977e+01  7.02477e+00 -1.59291e+01
       E -2.97657e+01  1.84291e+01  1.49262e+01
3
# CELL(abcABC): 1322.94304  1322.94304  1322.94304    90.00000    90.00000    90.00000  Step:         400  Bead:       9 positions{angstrom}  cell{angstrom}
       E  6.53641e+00  1.31214e+01 -1.57787e+01
       E -9.20912e+00  3.92603e+01  6.12662e+00
       E  2.69273e+00  1.85373e+01  1.25444e+01
3
# CELL(abcABC): 1322.94304  1322.94304  1322.94304    90.00000    90.00000    90.00000  Step:         500  Bead:       9 positions{angstrom}  cell{angstrom}
       E -1.75274e+01  2.06902e+01 -7.18366e+00
       E  2.57298e+01  1.09637e+01  1.84348e+01
       E -1.95507e+01  1.58866e+01  3.94848e+01
3
# CELL(abcABC): 1322.94304  1322.94304  1322.94304    90.00000    90.00000    90.00000  Step:         600  Bead:       9 positions{angstrom}  cell{angstrom}
       E -3.94377e+01  3.69350e+01 -3.69982e+01
       E -1.45514e+01 -6.21184e+00  3.46435e+01
       E  5.59640e+00  1.12423e+01  1.10413e+01
3
# CELL(abcABC): 1322.94304  1322.94304  1322.94304    90.00000    90.00000    90.00000  Step:         700  Bead:       9 positions{angstrom}  cell{angstrom}
       E -1.14489e+01  3.15771e+01 -3.69343e+01
       E -1.53264e+00  2.88165e+01  4.48319e+01
       E  7.44340e+00  3.14567e+01  2.96691e+01
3
# CELL(abcABC): 1322.94304  1322.94304  1322.94304    90.00000    90.00000    90.00000  Step:         800  Bead:       9 positions{angstrom}  cell{angstrom}
       E -4.41372e+01  2.97616e+01 -4.41184e+01
       E  1.37653e+01  5.72338e+01  2.32930e+01
       E -6.52449e+01  2.24764e+01  7.91566e+01
3
# CELL(abcABC): 1322.94304  1322.94304  1322.94304    90.00000    90.00000    90.00000  Step:         900  Bead:       9 positions{angstrom}  cell{angstrom}
       E  7.31210e+00 -1.49245e+01 -2.51740e+01
       E  7.24388e+00  9.08500e+00 -8.85769e+00
       E -4.06193e+01  3.59985e+01  9.76148e+01
3
# CELL(abcABC): 1322.94304  1322.94304  1322.94304    90.00000    90.00000    90.00000  Step:        1000  Bead:       9 positions{angstrom}  cell{angstrom}
       E -3.93594e+00  2.36503e+01 -5.69541e+01
       E -1.19309e+01 -9.03696e+00 -5.26411e+01
       E -3.59838e+01  2.95348e+01  9.65613e+01
3
# CELL(abcABC): 1322.94304  1322.94304  1322.94304    90.00000    90.00000    90.00000  Step:        1100  Bead:       9 positions{angstrom}  cell{angstrom}
       E  3.87969e+01  2.12316e+01 -9.42882e+01
       E  3.69810e+01 -1.74180e+01 -4.91769e+01
       E -1.90269e+01  2.41956e+01  8.52671e+01
3
# CELL(abcABC): 1322.94304  1322.94304  1322.94304    90.00000    90.00000    90.00000  Step:        1200  Bead:       9 positions{angstrom}  cell{angstrom}
       E  2.37638e+01  1.94508e+01 -9.63464e+01
       E  3.15488e+01 -3.06669e+01 -8.26047e+01
       E -1.41737e+01  2.79434e+01  4.85633e+01
3
# CELL(abcABC): 1322.94304  1322.94304  1322.94304    90.00000    90.00000    90.00000  Step:        1300  Bead:       9 positions{angstrom}  cell{angstrom}
       E -1.11006e+01  2.60283e+01 -9.01240e+01
       E  5.10577e+00 -5.57793e+01 -5.54879e+01
       E -2.71629e+01  1.98610e+01  5.29965e+01
3
# CELL(abcABC): 1322.94304  1322.94304  1322.94304    90.00000    90.00000    90.00000  Step:        1400  Bead:       9 positions{angstrom}  cell{angstrom}
       E -3.96973e+01  9.00584e+00 -1.05242e+02
       E -3.08669e+00 -2.44455e+01 -5.47758e+01
       E -5.74825e+01  3.97866e+01  5.33596e+00
3
# CELL(abcABC): 1322.94304  1322.94304  1322.94304    90.00000    90.00000    90.00000  Step:        1500  Bead:       9 positions{angstrom}  cell{angstrom}
       E -1.75227e+01  5.43244e+01 -8.29853e+01
       E -2.45873e+01 -3.03525e+01 -2.15171e+01
       E -7.61790e+01  3.79693e+01  3.51174e+01
3
# CELL(abcABC): 1322.94304  1322.94304  1322.94304    90.00000    90.00000    90.00000  Step:        1600  Bead:       9 positions{angstrom}  cell{angstrom}
       E  1.26801e+01  4.70690e+01 -5.90235e+01
       E -2.79565e+01  3.06686e+01 -2.21646e+01
       E -4.38528e+01  5.37062e+01  2.11506e+01
3
# CELL(abcABC): 1322.94304  1322.94304  1322.94304    90.00000    90.00000    90.00000  Step:        1700  Bead:       9 positions{angstrom}  cell{angstrom}
       E  1.95014e+01  1.72423e+01 -1.66185e+01
       E  3.38448e-01  3.93726e+01  1.73846e+01
       E -4.07629e+01  6.10348e+01  3.30174e+01
3
# CELL(abcABC): 1322.94304  1322.94304  1322.94304    90.00000    90.00000    90.00000  Step:        1800  Bead:       9 positions{angstrom}  cell{angstrom}
       E -2.01495e+01 -5.27843e+00  8.23862e+00
       E -2.14039e+01  5.70272e+01  2.76357e+00
       E -6.10319e+01  6.09929e+01  9.23751e+01
3
# CELL(abcABC): 1322.94304  1322.94304  1322.94304    90.00000    90.00000    90.00000  Step:        1900  Bead:       9 positions{angstrom}  cell{angstrom}
       E -3.00031e+01  2.54603e+01  2.76037e+01
       E -6.94917e+01  2.57977e+01  3.73756e+00
       E -6.72857e+01  5.15953e+01  6.68481e+01
3
# CELL(abcABC): 1322.94304  1322.94304  1322.94304    90.00000    90.00000    90.00000  Step:        2000  Bead:       9 positions{angstrom}  cell{angstrom}
       E -1.53510e+01  1.03764e+01  5.35266e+01
       E -6.36423e+01  3.52620e+01  3.49907e+01
       E -9.71077e+01  4.41863e+01 -1.72357e+01
3
# CELL(abcABC): 1322.94304  1322.94304  1322.94304    90.00000    90.00000    90.00000  Step:        2100  Bead:       9 positions{angstrom}  cell{angstrom}
       E  1.74001e+00 -3.49138e+01  5.59016e+01
       E -3.10234e+01  1.40275e+01 -1.05540e+01
       E -6.62930e+01  4.02501e+01  3.76743e-01
3
# CELL(abcABC): 1322.94304  1322.94304  1322.94304    90.00000    90.00000    90.00000  Step:        2200  Bead:       9 positions{angstrom}  cell{angstrom}
       E -2.46200e+01 -3.69209e+01  6.66663e+01
       E -3.96293e+01  6.11749e+00 -2.12449e+01
       E -5.03123e+01  8.72309e+01 -1.75722e+00
3
# CELL(abcABC): 1322.94304  1322.94304  1322.94304    90.00000    90.00000    90.00000  Step:        2300  Bead:       9 positions{angstrom}  cell{angstrom}
       E -1.52540e+01 -9.04547e+01  4.69981e+01
       E -3.73192e+01 -2.02210e+01 -1.26451e+01
       E -3.61465e+01  7.13019e+01  2.53380e+01
3
# CELL(abcABC): 1322.94304  1322.94304  1322.94304    90.00000    90.00000    90.00000  Step:        2400  Bead:       9 positions{angstrom}  cell{angstrom}
       E -1.09422e+01 -7.35483e+01  2.65155e+01
       E  2.13982e+00 -2.35534e+01 -1.82005e+01
       E  8.30019e-01  4.59104e+01  2.52349e+01
3
# CELL(abcABC): 1322.94304  1322.94304  1322.94304    90.00000    90.00000    90.00000  Step:        2500  Bead:       9 positions{angstrom}  cell{angstrom}
       E -1.07098e+01 -4.25789e+01  4.87617e+01
       E -1.96639e+00 -3.06294e+01 -6.10968e+01
       E -8.20041e-01  3.12617e+01  4.79786e+01
3
# CELL(abcABC): 1322.94304  1322.94304  1322.94304    90.00000    90.00000    90.00000  Step:        2600  Bead:       9 positions{angstrom}  cell{angstrom}
       E  1.51128e+01 -3.37512e+01  5.16174e+01
       E -4.98574e+01 -2.90645e+01 -8.67171e+01
       E  2.79049e+00  1.31024e+00  6.43036e+01
3
# CELL(abcABC): 1322.94304  1322.94304  1322.94304    90.00000    90.00000    90.00000  Step:        2700  Bead:       9 positions{angstrom}  cell{angstrom}
       E -2.00659e+01 -3.24039e+01  6.34432e+01
       E -9.39601e+01 -3.57664e+01 -6.68607e+01
       E  1.32042e+01  8.11721e-01  2.69010e+01
3
# CELL(abcABC): 1322.94304  1322.94304  1322.94304    90.00000    90.00000    90.00000  Step:        2800  Bead:       9 positions{angstrom}  cell{angstrom}
       E -5.07198e+01 -5.60314e+01  7.37366e-02
       E -6.13238e+01 -7.25172e+01 -2.48157e+01
       E  2.86545e+01 -5.63018e+00  4.41254e+01
3
# CELL(abcABC): 1322.94304  1322.94304  1322.94304    90.00000    90.00000    90.00000  Step:        2900  Bead:       9 positions{angstrom}  cell{angstrom}
       E -3.31202e+01 -5.84492e+01 -1.47795e+01
       E -4.36794e+01 -4.18714e+01 -1.70823e+01
       E  3.13399e+01  4.08488e+01  2.65225e+01
3
# CELL(abcABC): 1322.94304  1322.94304  1322.94304    90.00000    90.00000    90.00000  Step:        3000  Bead:       9 positions{angstrom}  cell{angstrom}
       E -2.35871e+01 -4.73072e+01  1.35321e+01
       E -3.59490e+01 -5.59454e+01  2.68252e+01
       E  5.61710e+01  4.82601e+01 -4.48456e+00
3
# CELL(abcABC): 1322.94304  1322.94304  1322.94304    90.00000    90.00000    90.00000  Step:        3100  Bead:       9 positions{angstrom}  cell{angstrom}
       E -1.61940e+01 -3.60745e+01  2.95069e+01
       E -5.73063e+01 -6.93622e+01  4.72262e+01
       E  3.29429e+01  3.72243e+01  8.97455e+00
3
# CELL(abcABC): 1322.94304  1322.94304  1322.94304    90.00000    90.00000    90.00000  Step:        3200  Bead:       9 positions{angstrom}  cell{angstrom}
       E -3.64600e+01 -1.05401e+01  6.58411e+01
       E -9.19308e+01 -4.38412e+01  7.32861e+01
       E  4.10002e+01  7.18222e+01  1.24438e+01
3
# CELL(abcABC): 1322.94304  1322.94304  1322.94304    90.00000    90.00000    90.00000  Step:        3300  Bead:       9 positions{angstrom}  cell{angstrom}
       E -3.39440e+01 -4.96761e+01  3.52047e+01
       E -9.22572e+01 -5.78277e+01  6.69201e+01
       E  4.50466e+01  5.04631e+01  4.75530e+01
3
# CELL(abcABC): 1322.94304  1322.94304  1322.94304    90.00000    90.00000    90.00000  Step:        3400  Bead:       9 positions{angstrom}  cell{angstrom}
       E -4.97263e+01  2.08271e+00 -9.52484e-01
       E -4.89917e+01 -4.77281e+01  6.57162e+01
       E -1.12357e+01  6.29000e+01  7.13041e+01
3
# CELL(abcABC): 1322.94304  1322.94304  1322.94304    90.00000    90.00000    90.00000  Step:        3500  Bead:       9 positions{angstrom}  cell{angstrom}
       E -7.54157e+01  1.34504e+00  2.54736e+01
       E -2.42342e+01 -4.21941e+01  5.43226e+01
       E  1.68476e+01  6.78388e+01  6.66011e+01
3
# CELL(abcABC): 1322.94304  1322.94304  1322.94304    90.00000    90.00000    90.00000  Step:        3600  Bead:       9 positions{angstrom}  cell{angstrom}
       E -8.75430e+01 -3.65764e+01  2.68612e+01
       E -2.98866e+01 -4.00025e+01  1.50259e+01
       E -3.52631e+01  5.39371e+01  1.85215e+00
3
# CELL(abcABC): 1322.94304  1322.94304  1322.94304    90.00000    90.00000    90.00000  Step:        3700  Bead:       9 positions{angstrom}  cell{angstrom}
       E -7.25121e+01 -2.64242e+01  1.02792e+01
       E -8.54456e+00 -2.17898e+01  2.32931e+01
       E -2.99035e+01  2.05358e+01  3.27922e+00
3
# CELL(abcABC): 1322.94304  1322.94304  1322.94304    90.00000    90.00000    90.00000  Step:        3800  Bead:       9 positions{angstrom}  cell{angstrom}
       E -9.29798e+01 -2.00064e+01 -2.47590e+01
       E -1.47198e+01 -1.35001e+01 -2.52896e+01
       E -2.57318e+01  5.71220e+00  6.30960e+00
3
# CELL(abcABC): 1322.94304  1322.94304  1322.94304    90.00000    90.00000    90.00000  Step:        3900  Bead:       9 positions{angstrom}  cell{angstrom}
       E -9.15136e+01  1.14069e+01 -3.28739e+01
       E  1.45732e+01 -2.04259e+01 -4.84583e+01
       E -1.71357e+01  1.79003e+01 -1.80216e+01
3
# CELL(abcABC): 1322.94304  1322.94304  1322.94304    90.00000    90.00000    90.00000  Step:        4000  Bead:       9 positions{angstrom}  cell{angstrom}
       E -1.40276e+02  3.13099e+01 -4.77620e+01
       E -4.21821e+01  1.00552e+01  1.69997e+00
       E -1.11240e+01 -3.90843e+00  1.13743e+01
3
# CELL(abcABC): 1322.94304  1322.94304  1322.94304    90.00000    90.00000    90.00000  Step:        4100  Bead:       9 positions{angstrom}  cell{angstrom}
       E -1.16757e+02  6.82322e+01 -5.56751e+01
       E -2.23148e+01  2.03890e+01  4.66694e+01
       E -3.31251e+01  1.85648e+01  6.16635e+01
3
# CELL(abcABC): 1322.94304  1322.94304  1322.94304    90.00000    90.00000    90.00000  Step:        4200  Bead:       9 positions{angstrom}  cell{angstrom}
       E -7.77935e+01  6.18970e+01 -5.15572e+01
       E -4.35200e+01  1.32969e+01  3.05240e+01
       E -1.12989e+01  1.42284e+01  5.21718e+01
3
# CELL(abcABC): 1322.94304  1322.94304  1322.94304    90.00000    90.00000    90.00000  Step:        4300  Bead:       9 positions{angstrom}  cell{angstrom}
       E -5.37325e+01  3.08859e+01 -6.56876e+01
       E -7.44598e+01  3.25148e+01  7.39424e+01
       E -2.74601e+01  2.48882e+01  1.34630e+00
3
# CELL(abcABC): 1322.94304  1322.94304  1322.94304    90.00000    90.00000    90.00000  Step:        4400  Bead:       9 positions{angstrom}  cell{angstrom}
       E -7.42432e+01  5.86803e+00 -6.44925e+01
       E -4.93580e+01  1.00478e+02  4.30807e+01
       E -3.40747e+01 -8.02735e+00  1.83945e+00
3
# CELL(abcABC): 1322.94304  1322.94304  1322.94304    90.00000    90.00000    90.00000  Step:        4500  Bead:       9 positions{angstrom}  cell{angstrom}
       E -6.15043e+01  1.43420e+00 -8.81537e+01
       E -7.62992e+01  6.31517e+01  1.79171e+01
       E -1.39703e+01 -2.72177e+01  2.71819e+01
3
# CELL(abcABC): 1322.94304  1322.94304  1322.94304    90.00000    90.00000    90.00000  Step:        4600  Bead:       9 positions{angstrom}  cell{angstrom}
       E -1.02271e+00  4.56059e+01 -8.15089e+01
       E -4.88072e+01  1.89189e+01 -2.08904e+01
       E  1.79641e+01 -1.15470e+01  3.67737e+01
3
# CELL(abcABC): 1322.94304  1322.94304  1322.94304    90.00000    90.00000    90.00000  Step:        4700  Bead:       9 positions{angstrom}  cell{angstrom}
       E  8.67307e+00  5.69924e+01 -7.01444e+01
       E -2.69624e+01  3.99955e+01 -1.60475e+01
       E  5.38537e+01 -1.86795e+01  1.58599e+01
3
# CELL(abcABC): 1322.94304  1322.94304  1322.94304    90.00000    90.00000    90.00000  Step:        4800  Bead:       9 positions{angstrom}  cell{angstrom}
       E  2.54903e+01  7.13808e+01 -2.89003e+01
       E -7.54040e+01  6.81717e+01 -1.62261e+00
       E  4.99256e+01  1.91064e+01 -1.89290e+01
3
# CELL(abcABC): 1322.94304  1322.94304  1322.94304    90.00000    90.00000    90.00000  Step:        4900  Bead:       9 positions{angstrom}  cell{angstrom}
       E  3.40884e+01  5.38070e+01 -2.76468e+01
       E -7.54470e+01 -1.58031e+01 -1.54742e+01
       E  1.68211e+01  7.62046e+00 -1.28042e+01
3
# CELL(abcABC): 1322.94304  1322.94304  1322.94304    90.00000    90.00000    90.00000  Step:        5000  Bead:       9 positions{angstrom}  cell{angstrom}
       E  3.68144e+00  2.84203e+01  1.02443e+01
       E -4.37858e+01 -2.37349e+01 -4.20459e+01
       E  5.51417e+00 -1.22150e+01 -3.16980e+01
3
# CELL(abcABC): 1322.94304  1322.94304  1322.94304    90.00000    90.00000    90.00000  Step:        5100  Bead:       9 positions{angstrom}  cell{angstrom}
       E  5.95357e+00  1.60593e+01  1.83941e+01
       E -3.06824e+01 -2.39530e+01 -3.20365e+01
       E  9.84199e+00  9.75312e+00  2.34887e+00
3
# CELL(abcABC): 1322.94304  1322.94304  1322.94304    90.00000    90.00000    90.00000  Step:        5200  Bead:       9 positions{angstrom}  cell{angstrom}
       E  1.37711e+01  3.20221e+01  2.37000e+01
       E -5.60982e+01  2.10390e+01 -2.68111e+01
       E  1.40793e+01  2.80265e+00  4.95889e+00
3
# CELL(abcABC): 1322.94304  1322.94304  1322.94304    90.00000    90.00000    90.00000  Step:        5300  Bead:       9 positions{angstrom}  cell{angstrom}
       E  2.53572e+01  5.70400e+01  4.24224e+01
       E -2.54883e+01  4.11086e+01 -2.03814e+01
       E  3.98936e+01  5.70058e+01  2.47408e+01
3
# CELL(abcABC): 1322.94304  1322.94304  1322.94304    90.00000    90.00000    90.00000  Step:        5400  Bead:       9 positions{angstrom}  cell{angstrom}
       E  9.53672e+00  3.46410e+01  2.67466e+01
       E -3.97748e+01  3.25815e+01 -4.99538e+01
       E  1.35156e+01  2.87253e+01  5.44270e+01
3
# CELL(abcABC): 1322.94304  1322.94304  1322.94304    90.00000    90.00000    90.00000  Step:        5500  Bead:       9 positions{angstrom}  cell{angstrom}
       E -1.15685e+01  3.94060e+01  5.42862e+01
       E -5.76793e+01  5.51439e+00 -4.03188e+01
       E -2.26581e+01  8.30784e+00  2.43524e+01
3
# CELL(abcABC): 1322.94304  1322.94304  1322.94304    90.00000    90.00000    90.00000  Step:        5600  Bead:       9 positions{angstrom}  cell{angstrom}
       E -1.81848e+01 -1.18411e+00  1.02559e+01
       E -5.14548e+01  1.47422e+01 -2.19599e+01
       E -3.95551e+01  3.03652e+00  2.39687e+01
3
# CELL(abcABC): 1322.94304  1322.94304  1322.94304    90.00000    90.00000    90.00000  Step:        5700  Bead:       9 positions{angstrom}  cell{angstrom}
       E -1.30826e+01  1.48911e+01  1.13491e+01
       E -4.44234e+01  3.46214e+01 -1.40373e+01
       E -2.20688e+01  6.16772e-01  2.39677e+01
3
# CELL(abcABC): 1322.94304  1322.94304  1322.94304    90.00000    90.00000    90.00000  Step:        5800  Bead:       9 positions{angstrom}  cell{angstrom}
       E -2.78079e+00  1.55292e+01 -2.02706e+00
       E -2.51414e+01  3.79804e+01 -9.49478e+00
       E -1.11161e+01  7.94330e+00  2.80255e+01
3
# CELL(abcABC): 1322.94304  1322.94304  1322.94304    90.00000    90.00000    90.00000  Step:        5900  Bead:       9 positions{angstrom}  cell{angstrom}
       E  1.05579e+01 -1.56365e+00 -2.33421e+01
       E -3.64961e+01  2.76259e+01 -3.24713e+01
       E -5.06266e+00 -9.67923e+00  8.44892e+00
3
# CELL(abcABC): 1322.94304  1322.94304  1322.94304    90.00000    90.00000    90.00000  Step:        6000  Bead:       9 positions{angstrom}  cell{angstrom}
       E  4.79068e+01 -3.95789e+01 -1.39187e+01
       E -3.08609e+01  4.13273e+00 -1.80097e+01
       E  1.97363e+01 -1.71331e+01  2.64480e+01
3
# CELL(abcABC): 1322.94304  1322.94304  1322.94304    90.00000    90.00000    90.00000  Step:        6100  Bead:       9 positions{angstrom}  cell{angstrom}
       E  4.30296e+01 -4.64517e+01 -5.25229e+01
       E  2.90861e+01  1.37721e+01  2.13967e+01
       E -6.82047e-01 -1.37673e+01 -1.13883e+01
3
# CELL(abcABC): 1322.94304  1322.94304  1322.94304    90.00000    90.00000    90.00000  Step:        6200  Bead:       9 positions{angstrom}  cell{angstrom}
       E  1.72864e+01 -4.42122e+01 -7.48290e+01
       E  8.53083e+01 -8.65217e+00 -2.80805e+01
       E  2.62614e+01 -1.03989e+01 -3.43179e+00
3
# CELL(abcABC): 1322.94304  1322.94304  1322.94304    90.00000    90.00000    90.00000  Step:        6300  Bead:       9 positions{angstrom}  cell{angstrom}
       E  4.59162e+01 -6.10765e+01 -7.81660e+01
       E  7.97914e+01 -3.87020e+01 -2.75185e+01
       E  1.74619e+01 -2.47343e+01 -2.09933e+01
3
# CELL(abcABC): 1322.94304  1322.94304  1322.94304    90.00000    90.00000    90.00000  Step:        6400  Bead:       9 positions{angstrom}  cell{angstrom}
       E  4.68215e+01 -6.38065e+01 -9.79273e+01
       E  1.09011e+02 -2.93770e+01 -3.70303e+01
       E -8.60587e+00 -1.72129e+01  2.03837e+01
3
# CELL(abcABC): 1322.94304  1322.94304  1322.94304    90.00000    90.00000    90.00000  Step:        6500  Bead:       9 positions{angstrom}  cell{angstrom}
       E -6.96148e-01 -1.15547e+02 -1.07091e+02
       E  5.20093e+01 -3.77181e+01 -2.77157e+01
       E  1.22405e+01 -4.91264e+01  2.93576e+01
3
# CELL(abcABC): 1322.94304  1322.94304  1322.94304    90.00000    90.00000    90.00000  Step:        6600  Bead:       9 positions{angstrom}  cell{angstrom}
       E -2.92903e+01 -8.88510e+01 -1.15571e+02
       E  3.69947e+01 -5.00880e+01 -8.34385e+00
       E  1.80741e+01 -7.90704e+00  3.16496e+01
3
# CELL(abcABC): 1322.94304  1322.94304  1322.94304    90.00000    90.00000    90.00000  Step:        6700  Bead:       9 positions{angstrom}  cell{angstrom}
       E -1.39384e+01 -7.30584e+01 -1.03852e+02
       E  3.66553e+01 -4.32147e+01 -1.15115e+01
       E  1.37731e+01  4.19478e+00  1.32803e+01
3
# CELL(abcABC): 1322.94304  1322.94304  1322.94304    90.00000    90.00000    90.00000  Step:        6800  Bead:       9 positions{angstrom}  cell{angstrom}
       E  1.49987e+01 -5.14681e+01 -6.76794e+01
       E  4.74929e+01  6.49205e+00 -1.09889e+01
       E -6.55817e+00  5.39943e+01 -2.09461e+00
3
# CELL(abcABC): 1322.94304  1322.94304  1322.94304    90.00000    90.00000    90.00000  Step:        6900  Bead:       9 positions{angstrom}  cell{angstrom}
       E -9.70797e+00 -6.18776e+01 -6.99118e+01
       E  9.16846e+00 -3.64669e+01 -3.32523e+01
       E  3.25723e+00  3.37631e+01  1.67764e+01
3
# CELL(abcABC): 1322.94304  1322.94304  1322.94304    90.00000    90.00000    90.00000  Step:        7000  Bead:       9 positions{angstrom}  cell{angstrom}
       E -4.70343e+01 -5.33917e+01 -3.24692e+01
       E  2.56772e+00 -1.41380e+01  6.59024e+00
       E -3.94832e+00  3.71361e+01  4.09625e+01
3
# CELL(abcABC): 1322.94304  1322.94304  1322.94304    90.00000    90.00000    90.00000  Step:        7100  Bead:       9 positions{angstrom}  cell{angstrom}
       E -1.64992e+01 -3.56025e+01 -1.35743e+01
       E -1.20777e+01 -2.64421e+00  4.74049e+01
       E  3.76788e+00  2.97192e+01  5.87407e+01
3
# CELL(abcABC): 1322.94304  1322.94304  1322.94304    90.00000    90.00000    90.00000  Step:        7200  Bead:       9 positions{angstrom}  cell{angstrom}
       E -2.42327e+00 -1.65388e+01 -1.14446e+01
       E -4.16898e+01  2.79943e+01  3.68588e+01
       E  4.28069e+01  4.38186e+01  1.64669e+01
3
# CELL(abcABC): 1322.94304  1322.94304  1322.94304    90.00000    90.00000    90.00000  Step:        7300  Bead:       9 positions{angstrom}  cell{angstrom}
       E -2.72018e+01 -2.12660e+01 -4.12836e+01
       E -2.13689e+01  5.63831e+01  4.17940e+01
       E  8.88087e+01  5.08466e+01 -2.16623e+01
3
# CELL(abcABC): 1322.94304  1322.94304  1322.94304    90.00000    90.00000    90.00000  Step:        7400  Bead:       9 positions{angstrom}  cell{angstrom}
       E -4.52750e+00 -5.48612e+01 -3.75429e+01
       E -1.12795e+01  5.11935e+01  3.26062e+01
       E  1.01060e+02  7.62953e+01 -6.67522e+00
3
# CELL(abcABC): 1322.94304  1322.94304  1322.94304    90.00000    90.00000    90.00000  Step:        7500  Bead:       9 positions{angstrom}  cell{angstrom}
       E -1.15513e+01 -6.77684e+01 -5.09310e+01
       E -2.48305e+01  3.14419e+00  1.06612e+01
       E  4.87503e+01  4.99404e+01 -3.08450e+01
3
# CELL(abcABC): 1322.94304  1322.94304  1322.94304    90.00000    90.00000    90.00000  Step:        7600  Bead:       9 positions{angstrom}  cell{angstrom}
       E -8.78595e+00 -7.84158e+01 -2.16182e+01
       E -7.32076e+00 -4.70289e+01 -2.74941e+01
       E  5.43208e+01  3.63186e+01  5.66546e+00
3
# CELL(abcABC): 1322.94304  1322.94304  1322.94304    90.00000    90.00000    90.00000  Step:        7700  Bead:       9 positions{angstrom}  cell{angstrom}
       E -8.40765e-01 -5.72000e+01 -3.45565e+01
       E -8.28968e+00 -5.44785e+01 -4.35725e+01
       E  4.70739e+01  2.88145e+01 -1.68930e+01
3
# CELL(abcABC): 1322.94304  1322.94304  1322.94304    90.00000    90.00000    90.00000  Step:        7800  Bead:       9 positions{angstrom}  cell{angstrom}
       E  1.49982e+01 -2.83569e+01 -5.19454e+01
       E -1.23222e+01 -7.27332e+01 -1.97708e+01
       E  5.41149e+01  2.44517e+01 -8.61883e+01
3
# CELL(abcABC): 1322.94304  1322.94304  1322.94304    90.00000    90.00000    90.00000  Step:        7900  Bead:       9 positions{angstrom}  cell{angstrom}
       E  1.61942e+01 -3.49184e+01 -3.89176e+01
       E  7.91650e+00 -3.93702e+01 -2.34561e+01
       E  3.31546e+01  1.70661e+01 -6.38130e+01
3
# CELL(abcABC): 1322.94304  1322.94304  1322.94304    90.00000    90.00000    90.00000  Step:        8000  Bead:       9 positions{angstrom}  cell{angstrom}
       E  9.76371e+00 -2.93478e+00  8.27078e+00
       E  3.90592e+01 -4.85677e+01 -2.96601e+01
       E -1.24569e+01  3.69711e+01 -3.00647e+01
3
# CELL(abcABC): 1322.94304  1322.94304  1322.94304    90.00000    90.00000    90.00000  Step:        8100  Bead:       9 positions{angstrom}  cell{angstrom}
       E  4.25811e+01  2.59210e+01 -2.66866e+01
       E  1.17691e+01 -1.35002e+01 -1.53627e+01
       E  9.33024e+00  1.00581e+01  5.36107e+00
3
# CELL(abcABC): 1322.94304  1322.94304  1322.94304    90.00000    90.00000    90.00000  Step:        8200  Bead:       9 positions{angstrom}  cell{angstrom}
       E  2.30642e+01  3.93266e+01 -5.99890e+01
       E -1.74943e+01  1.42437e-01  1.48944e+01
       E  1.26271e+01 -1.87040e+01  3.48931e+00
3
# CELL(abcABC): 1322.94304  1322.94304  1322.94304    90.00000    90.00000    90.00000  Step:        8300  Bead:       9 positions{angstrom}  cell{angstrom}
       E  2.02356e+01  2.87542e+01 -6.09951e+01
       E -1.62874e+01  4.05015e+01  9.45832e+00
       E  5.02639e+01 -5.16468e+01  4.32116e+01
3
# CELL(abcABC): 1322.94304  1322.94304  1322.94304    90.00000    90.00000    90.00000  Step:        8400  Bead:       9 positions{angstrom}  cell{angstrom}
       E  1.26205e+01  3.28064e+01 -1.88482e+01
       E  2.20538e+01  3.03752e+01  2.44983e+01
       E  2.93909e+01 -2.74952e+01  2.98391e+01
3
# CELL(abcABC): 1322.94304  1322.94304  1322.94304    90.00000    90.00000    90.00000  Step:        8500  Bead:       9 positions{angstrom}  cell{angstrom}
       E -4.23965e+01  1.10349e+01 -1.90369e+01
       E  2.72037e+01  9.32200e+00  6.32070e+00
       E  3.16996e+01 -3.11140e+01  4.64617e+01
3
# CELL(abcABC): 1322.94304  1322.94304  1322.94304    90.00000    90.00000    90.00000  Step:        8600  Bead:       9 positions{angstrom}  cell{angstrom}
       E -5.54227e+01  1.93622e+01 -4.16610e+00
       E  1.52540e+01  2.08844e+01 -4.84477e+01
       E  3.89705e+01 -1.48737e+01  3.21374e+01
3
# CELL(abcABC): 1322.94304  1322.94304  1322.94304    90.00000    90.00000    90.00000  Step:        8700  Bead:       9 positions{angstrom}  cell{angstrom}
       E -2.58879e+01  4.55949e+01  8.33442e+00
       E  1.61714e+01  1.48203e+00 -4.06539e+00
       E  2.55080e+01 -3.43994e+01  1.93904e+01
3
# CELL(abcABC): 1322.94304  1322.94304  1322.94304    90.00000    90.00000    90.00000  Step:        8800  Bead:       9 positions{angstrom}  cell{angstrom}
       E -2.24203e+01  4.57304e+01  2.54348e+01
       E  2.47812e+01  4.71500e-03 -5.47812e+00
       E  3.67431e+01 -5.70681e+01  4.27308e+01
3
# CELL(abcABC): 1322.94304  1322.94304  1322.94304    90.00000    90.00000    90.00000  Step:        8900  Bead:       9 positions{angstrom}  cell{angstrom}
       E -1.96047e+01 -2.30874e+01 -3.67355e+00
       E  1.34366e+01 -4.60332e+01  4.29592e+01
       E  1.62075e+01 -5.82619e+01  5.83197e+01
3
# CELL(abcABC): 1322.94304  1322.94304  1322.94304    90.00000    90.00000    90.00000  Step:        9000  Bead:       9 positions{angstrom}  cell{angstrom}
       E -6.94630e+00  1.34394e+01  2.55161e+01
       E -7.67375e+00 -7.09862e+00  5.93505e+01
       E  2.24450e+01 -4.27593e+01 -6.35916e+00
3
# CELL(abcABC): 1322.94304  1322.94304  1322.94304    90.00000    90.00000    90.00000  Step:        9100  Bead:       9 positions{angstrom}  cell{angstrom}
       E -2.74902e+00  3.78123e+01 -2.02875e+00
       E -7.06690e+01 -1.34281e+01  4.93153e+01
       E  8.43247e+00 -1.70192e+01  4.64707e+01
3
# CELL(abcABC): 1322.94304  1322.94304  1322.94304    90.00000    90.00000    90.00000  Step:        9200  Bead:       9 positions{angstrom}  cell{angstrom}
       E -2.44720e+00  3.64491e+01  9.34925e+00
       E  1.98417e+01 -9.45964e+00  1.97701e+01
       E  6.32599e+00 -6.44030e+01  3.44212e+01
3
# CELL(abcABC): 1322.94304  1322.94304  1322.94304    90.00000    90.00000    90.00000  Step:        9300  Bead:       9 positions{angstrom}  cell{angstrom}
       E  1.54046e+01  4.93793e+01 -1.37617e+01
       E -1.00313e+01 -1.42338e+01  1.68082e+01
       E  2.16656e+01 -5.51566e+01 -1.55222e+01
3
# CELL(abcABC): 1322.94304  1322.94304  1322.94304    90.00000    90.00000    90.00000  Step:        9400  Bead:       9 positions{angstrom}  cell{angstrom}
       E  3.20584e+01  4.93041e+01 -6.13758e+01
       E -1.40985e+01 -4.69401e+01  3.23160e+01
       E  4.38253e+01 -4.69017e+01  1.62617e+01
3
# CELL(abcABC): 1322.94304  1322.94304  1322.94304    90.00000    90.00000    90.00000  Step:        9500  Bead:       9 positions{angstrom}  cell{angstrom}
       E  8.64177e+00  4.21048e+01 -4.77098e+01
       E -2.20302e+01 -5.97145e+01  2.71734e+01
       E  3.92240e+01 -3.51362e+01 -3.25570e-01
3
# CELL(abcABC): 1322.94304  1322.94304  1322.94304    90.00000    90.00000    90.00000  Step:        9600  Bead:       9 positions{angstrom}  cell{angstrom}
       E  2.92716e+01  3.52893e+01 -3.29368e+01
       E  4.67999e+01 -3.57409e+01  4.45444e+01
       E -2.23191e+00 -2.03681e+01  4.65322e+00
3
# CELL(abcABC): 1322.94304  1322.94304  1322.94304    90.00000    90.00000    90.00000  Step:        9700  Bead:       9 positions{angstrom}  cell{angstrom}
       E -4.28538e-01 -2.47496e+01 -7.09466e+01
       E  7.07564e+01 -5.74435e+01  2.18445e+01
       E  2.67778e+01 -4.03684e+01  1.04553e+01
3
# CELL(abcABC): 1322.94304  1322.94304  1322.94304    90.00000    90.00000    90.00000  Step:        9800  Bead:       9 positions{angstrom}  cell{angstrom}
       E -2.99591e+01 -7.05701e+01 -7.52588e+01
       E  3.39096e+01 -5.75193e+01 -5.31401e+00
       E  2.85335e+01 -7.57633e+00  9.65848e+00
3