3
# CELL(abcABC): 1322.94304  1322.94304  1322.94304    90.00000    90.00000    90.00000  Step:           0  Bead:       8 positions{angstrom}  cell{angstrom}
       E  0.00000e+00  0.00000e+00  0.00000e+00
       E  0.00000e+00  0.00000e+00  0.00000e+00
       E  0.00000e+00  0.00000e+00  0.00000e+00
3
# CELL(abcABC): 1322.94304  1322.94304  1322.94304    90.00000    90.00000    90.00000  Step:         100  Bead:       8 positions{angstrom}  cell{angstrom}
       E -3.98715e+01  5.36760e+00  1.42884e+01
       E -3.01133e+01 -2.82930e+00 -3.07995e+01
       E -1.83093e+01  8.73246e+00 -1.44937e+01
3
# CELL(abcABC): 1322.94304  1322.94304  1322.94304    90.00000    90.00000    90.00000  Step:         200  Bead:       8 positions{angstrom}  cell{angstrom}
       E -1.17583e+01 -2.69513e+01 -4.80602e+01
       E  3.27128e+01  2.99571e+01 -3.93007e+01
       E -4.24911e+01  5.36293e+00 -4.31979e-01
3
# CELL(abcABC): 1322.94304  1322.94304  1322.94304    90.00000    90.00000    90.00000  Step:         300  Bead:       8 positions{angstrom}  cell{angstrom}
       E -2.25676e+01 -1.93841e+01 -2.21381e+01
       E  2.16902e+01 -5.73479e+00 -3.35919e+01
       E -2.85151e+01 -7.44848e-02  5.01807e+00
3
# CELL(abcABC): 1322.94304  1322.94304  1322.94304    90.00000    90.00000    90.00000  Step:         400  Bead:       8 positions{angstrom}  cell{angstrom}
       E -1.25939e+00  2.26424e+01 -4.29309e+00
       E -9.18389e-01  2.60363e+01 -1.41952e+01
       E -1.57464e+01  2.31500e+01  7.75138e+00
3
# CELL(abcABC): 1322.94304  1322.94304  1322.94304    90.00000    90.00000    90.00000  Step:         500  Bead:       8 positions{angstrom}  cell{angstrom}
       E -2.21879e+01  1.31177e+01 -2.09879e+00
       E  1.14079e+01 -3.29788e+00  1.56307e+01
       E -1.72068e+01  9.74733e+00  1.91486e+01
3
# CELL(abcABC): 1322.94304  1322.94304  1322.94304    90.00000    90.00000    90.00000  Step:         600  Bead:       8 positions{angstrom}  cell{angstrom}
       E -3.59635e+01  4.04760e+01 -4.94223e+01
       E -2.23834e+01 -2.05061e+01  3.09033e+01
       E  1.10311e+01 -8.36389e+00  9.58214e+00
3
# CELL(abcABC): 1322.94304  1322.94304  1322.94304    90.00000    90.00000    90.00000  Step:         700  Bead:       8 positions{angstrom}  cell{angstrom}
       E  7.81678e+00  1.63702e+01 -4.78989e+01
       E -8.10754e+00  2.01403e+01  2.92717e+01
       E  1.14526e+01 -1.46844e+00  4.48080e+01
3
# CELL(abcABC): 1322.94304  1322.94304  1322.94304    90.00000    90.00000    90.00000  Step:         800  Bead:       8 positions{angstrom}  cell{angstrom}
       E -5.12975e+01  2.72546e+01 -4.57251e+01
       E  2.36089e+01  4.73264e+01  2.68802e+01
       E -5.61692e+01  2.59861e+01  9.32939e+01
3
# CELL(abcABC): 1322.94304  1322.94304  1322.94304    90.00000    90.00000    90.00000  Step:         900  Bead:       8 positions{angstrom}  cell{angstrom}
       E  2.46230e+01 -7.28053e+00 -2.96080e+01
       E  5.93688e+00  3.35592e+00 -3.12239e+01
       E -2.77453e+01  3.93443e+01  1.07920e+02
3
# CELL(abcABC): 1322.94304  1322.94304  1322.94304    90.00000    90.00000    90.00000  Step:        1000  Bead:       8 positions{angstrom}  cell{angstrom}
       E  1.87078e+01  1.07243e+01 -4.80193e+01
       E  5.72274e+00 -4.15516e-01 -3.92604e+01
       E -5.98022e+01  9.88138e+00  1.04071e+02
3
# CELL(abcABC): 1322.94304  1322.94304  1322.94304    90.00000    90.00000    90.00000  Step:        1100  Bead:       8 positions{angstrom}  cell{angstrom}
       E  2.87336e+01  2.38522e+01 -9.30659e+01
       E  5.60026e+01 -1.02238e+01 -5.04226e+01
       E -4.49344e+01  1.93993e+01  6.94083e+01
3
# CELL(abcABC): 1322.94304  1322.94304  1322.94304    90.00000    90.00000    90.00000  Step:        1200  Bead:       8 positions{angstrom}  cell{angstrom}
       E  2.98839e+01  3.76945e+00 -9.11581e+01
       E  2.15856e+01 -2.96023e+01 -8.66571e+01
       E -3.07007e+01  1.71521e+01  4.58661e+01
3
# CELL(abcABC): 1322.94304  1322.94304  1322.94304    90.00000    90.00000    90.00000  Step:        1300  Bead:       8 positions{angstrom}  cell{angstrom}
       E -1.04800e+01  1.57756e+01 -8.64831e+01
       E  1.29410e+00 -5.39720e+01 -5.61845e+01
       E -3.40370e+01  3.90216e+01  5.30258e+01
3
# CELL(abcABC): 1322.94304  1322.94304  1322.94304    90.00000    90.00000    90.00000  Step:        1400  Bead:       8 positions{angstrom}  cell{angstrom}
       E -3.53532e+01  7.00499e+00 -8.54510e+01
       E -1.24768e+01 -3.79663e+01 -4.77409e+01
       E -5.39420e+01  3.12774e+01  2.80159e+01
3
# CELL(abcABC): 1322.94304  1322.94304  1322.94304    90.00000    90.00000    90.00000  Step:        1500  Bead:       8 positions{angstrom}  cell{angstrom}
       E -1.49041e+01  4.00864e+01 -7.07390e+01
       E -1.31351e+01 -3.10279e+01 -2.78964e+01
       E -6.08798e+01  4.60378e+01  1.79608e+01
3
# CELL(abcABC): 1322.94304  1322.94304  1322.94304    90.00000    90.00000    90.00000  Step:        1600  Bead:       8 positions{angstrom}  cell{angstrom}
       E  2.00037e+00  3.46019e+01 -4.30846e+01
       E -1.64794e+01  6.52665e+00 -2.27903e+01
       E -4.81907e+01  6.18138e+01  1.92996e+01
3
# CELL(abcABC): 1322.94304  1322.94304  1322.94304    90.00000    90.00000    90.00000  Step:        1700  Bead:       8 positions{angstrom}  cell{angstrom}
       E  1.26131e+01  3.99639e+00 -2.33656e+01
       E  6.37502e-01  1.92329e+01  1.11316e+01
       E -4.42915e+01  7.13674e+01  3.61259e+01
3
# CELL(abcABC): 1322.94304  1322.94304  1322.94304    90.00000    90.00000    90.00000  Step:        1800  Bead:       8 positions{angstrom}  cell{angstrom}
       E -2.12603e+01  8.46679e+00 -7.54879e+00
       E -1.13972e+01  3.53440e+01  2.42389e+00
       E -6.27425e+01  7.55195e+01  8.58983e+01
3
# CELL(abcABC): 1322.94304  1322.94304  1322.94304    90.00000    90.00000    90.00000  Step:        1900  Bead:       8 positions{angstrom}  cell{angstrom}
       E -1.82477e+01  3.54551e+01  1.77928e+01
       E -7.83854e+01  2.73155e+01  5.86310e+00
       E -7.88092e+01  6.07651e+01  3.18900e+01
3
# CELL(abcABC): 1322.94304  1322.94304  1322.94304    90.00000    90.00000    90.00000  Step:        2000  Bead:       8 positions{angstrom}  cell{angstrom}
       E -1.13155e+01  6.77015e+00  5.20266e+01
       E -6.00052e+01  3.13597e+01  3.04580e+01
       E -8.02681e+01  3.83353e+01 -1.53030e+01
3
# CELL(abcABC): 1322.94304  1322.94304  1322.94304    90.00000    90.00000    90.00000  Step:        2100  Bead:       8 positions{angstrom}  cell{angstrom}
       E -7.18734e+00 -3.13797e+01  6.66175e+01
       E -4.15911e+01  2.72079e+01 -3.49775e-01
       E -6.04899e+01  4.72889e+01  2.78291e+00
3
# CELL(abcABC): 1322.94304  1322.94304  1322.94304    90.00000    90.00000    90.00000  Step:        2200  Bead:       8 positions{angstrom}  cell{angstrom}
       E -2.04351e+01 -4.73035e+01  5.44352e+01
       E -1.11640e+01 -1.47445e+01 -1.43653e+01
       E -5.08986e+01  8.58448e+01  7.30189e+00
3
# CELL(abcABC): 1322.94304  1322.94304  1322.94304    90.00000    90.00000    90.00000  Step:        2300  Bead:       8 positions{angstrom}  cell{angstrom}
       E -1.76845e+01 -8.83635e+01  5.36943e+01
       E -3.58190e+01 -1.97674e+01  1.67560e+01
       E -3.07706e+01  8.04947e+01  5.75525e+01
3
# CELL(abcABC): 1322.94304  1322.94304  1322.94304    90.00000    90.00000    90.00000  Step:        2400  Bead:       8 positions{angstrom}  cell{angstrom}
       E -1.51876e+01 -7.06423e+01  2.85244e+01
       E  8.66396e+00 -1.94486e+01 -3.72792e+00
       E  1.67992e-01  5.24293e+01  2.21547e+01
3
# CELL(abcABC): 1322.94304  1322.94304  1322.94304    90.00000    90.00000    90.00000  Step:        2500  Bead:       8 positions{angstrom}  cell{angstrom}
       E -1.71792e+01 -5.42675e+01  4.45542e+01
       E -3.69089e+00 -3.11477e+01 -6.73028e+01
       E  1.65644e+01  4.08647e+01  6.61232e+01
3
# CELL(abcABC): 1322.94304  1322.94304  1322.94304    90.00000    90.00000    90.00000  Step:        2600  Bead:       8 positions{angstrom}  cell{angstrom}
       E  2.31113e+01 -6.14375e+01  7.75421e+01
       E -3.46788e+01 -3.15090e+01 -8.85734e+01
       E -7.03358e+00 -2.19887e+01  4.31114e+01
3
# CELL(abcABC): 1322.94304  1322.94304  1322.94304    90.00000    90.00000    90.00000  Step:        2700  Bead:       8 positions{angstrom}  cell{angstrom}
       E -1.75703e+00 -2.36742e+01  8.91252e+01
       E -7.09043e+01 -4.04349e+01 -5.65457e+01
       E  1.48638e+01 -1.02000e+01  2.82477e+01
3
# CELL(abcABC): 1322.94304  1322.94304  1322.94304    90.00000    90.00000    90.00000  Step:        2800  Bead:       8 positions{angstrom}  cell{angstrom}
       E -3.95407e+01 -5.74898e+01  1.58007e+01
       E -4.43391e+01 -6.08306e+01 -3.13443e+01
       E  3.27148e+01  3.61030e+00  6.43059e+01
3
# CELL(abcABC): 1322.94304  1322.94304  1322.94304    90.00000    90.00000    90.00000  Step:        2900  Bead:       8 positions{angstrom}  cell{angstrom}
       E -3.20110e+01 -6.21080e+01 -3.20325e+01
       E -4.87624e+01 -5.62662e+01 -3.16541e+01
       E  5.32228e+01  3.78515e+01  4.72486e+01
3
# CELL(abcABC): 1322.94304  1322.94304  1322.94304    90.00000    90.00000    90.00000  Step:        3000  Bead:       8 positions{angstrom}  cell{angstrom}
       E -4.33433e+01 -3.94169e+01 -1.32825e+01
       E -2.72007e+01 -4.94202e+01  1.98863e+01
       E  5.59422e+01  4.21087e+01 -1.07800e+01
3
# CELL(abcABC): 1322.94304  1322.94304  1322.94304    90.00000    90.00000    90.00000  Step:        3100  Bead:       8 positions{angstrom}  cell{angstrom}
       E -3.21861e+01 -2.97808e+01  2.61659e+01
       E -4.16767e+01 -8.06060e+01  5.28931e+01
       E  1.74198e+01  4.54470e+01  2.11054e+01
3
# CELL(abcABC): 1322.94304  1322.94304  1322.94304    90.00000    90.00000    90.00000  Step:        3200  Bead:       8 positions{angstrom}  cell{angstrom}
       E -3.79655e+01  3.84675e-01  6.65539e+01
       E -9.69949e+01 -5.32668e+01  4.76123e+01
       E  3.70862e+01  5.77170e+01  8.43089e+00
3
# CELL(abcABC): 1322.94304  1322.94304  1322.94304    90.00000    90.00000    90.00000  Step:        3300  Bead:       8 positions{angstrom}  cell{angstrom}
       E -4.14431e+01 -4.87974e+01  3.95786e+01
       E -8.87439e+01 -2.83432e+01  7.57980e+01
       E  2.70215e+01  3.49966e+01  5.42964e+01
3
# CELL(abcABC): 1322.94304  1322.94304  1322.94304    90.00000    90.00000    90.00000  Step:        3400  Bead:       8 positions{angstrom}  cell{angstrom}
       E -7.91090e+01  6.65835e+00  1.98450e+01
       E -7.18967e+01 -5.36427e+01  6.50046e+01
       E  1.69114e+01  5.86875e+01  4.36789e+01
3
# CELL(abcABC): 1322.94304  1322.94304  1322.94304    90.00000    90.00000    90.00000  Step:        3500  Bead:       8 positions{angstrom}  cell{angstrom}
       E -8.69310e+01 -6.05489e+00  1.30358e+01
       E -1.80168e+01 -4.74287e+01  4.40168e+01
       E  1.56211e+01  5.33714e+01  6.78690e+01
3
# CELL(abcABC): 1322.94304  1322.94304  1322.94304    90.00000    90.00000    90.00000  Step:        3600  Bead:       8 positions{angstrom}  cell{angstrom}
       E -7.52317e+01 -3.58665e+01  2.86844e+01
       E -3.45665e+00 -3.65056e+01  3.38337e+01
       E -5.17034e+01  4.07561e+01  2.69417e+01
3
# CELL(abcABC): 1322.94304  1322.94304  1322.94304    90.00000    90.00000    90.00000  Step:        3700  Bead:       8 positions{angstrom}  cell{angstrom}
       E -8.69032e+01 -3.23898e+01  6.81355e+00
       E -3.68657e+00 -2.19978e+01  9.85374e+00
       E -3.68759e+01  3.89139e+01 -2.61467e+01
3
# CELL(abcABC): 1322.94304  1322.94304  1322.94304    90.00000    90.00000    90.00000  Step:        3800  Bead:       8 positions{angstrom}  cell{angstrom}
       E -9.31732e+01 -1.82464e+01 -3.54264e+01
       E -1.81875e+01 -2.21534e+01 -1.79052e+01
       E -2.90916e+01  6.57314e+00  4.32912e+00
3
# CELL(abcABC): 1322.94304  1322.94304  1322.94304    90.00000    90.00000    90.00000  Step:        3900  Bead:       8 positions{angstrom}  cell{angstrom}
       E -7.81349e+01  1.27608e+01 -2.03176e+01
       E -2.09964e+01 -1.11348e+01 -5.10583e+01
       E -2.13623e+01 -2.13962e+00 -4.08946e+00
3
# CELL(abcABC): 1322.94304  1322.94304  1322.94304    90.00000    90.00000    90.00000  Step:        4000  Bead:       8 positions{angstrom}  cell{angstrom}
       E -1.36638e+02  3.96093e+01 -4.12145e+01
       E -2.71640e+01  1.71993e+00  1.25868e+00
       E -9.91370e+00  2.90802e+00  2.23676e+01
3
# CELL(abcABC): 1322.94304  1322.94304  1322.94304    90.00000    90.00000    90.00000  Step:        4100  Bead:       8 positions{angstrom}  cell{angstrom}
       E -1.15002e+02  8.99991e+01 -5.11123e+01
       E -1.03445e+01  1.48594e+01  5.07343e+01
       E -2.89372e+01  1.06967e+01  4.85071e+01
3
# CELL(abcABC): 1322.94304  1322.94304  1322.94304    90.00000    90.00000    90.00000  Step:        4200  Bead:       8 positions{angstrom}  cell{angstrom}
       E -6.48353e+01  7.00213e+01 -3.74810e+01
       E -3.61188e+01  2.50693e+01  4.65386e+01
       E -3.59590e+01  8.15806e+00  4.56933e+01
3
# CELL(abcABC): 1322.94304  1322.94304  1322.94304    90.00000    90.00000    90.00000  Step:        4300  Bead:       8 positions{angstrom}  cell{angstrom}
       E -6.49901e+01  1.57979e+01 -7.49092e+01
       E -7.33401e+01  3.30813e+01  8.64133e+01
       E -4.21113e+01  9.69163e+00 -5.22355e+00
3
# CELL(abcABC): 1322.94304  1322.94304  1322.94304    90.00000    90.00000    90.00000  Step:        4400  Bead:       8 positions{angstrom}  cell{angstrom}
       E -8.03986e+01  7.74199e-01 -7.29521e+01
       E -4.68712e+01  8.70894e+01  4.72755e+01
       E -3.07555e+01 -1.45384e+01 -1.40104e+01
3
# CELL(abcABC): 1322.94304  1322.94304  1322.94304    90.00000    90.00000    90.00000  Step:        4500  Bead:       8 positions{angstrom}  cell{angstrom}
       E -7.17508e+01  1.13448e+01 -7.79973e+01
       E -6.83807e+01  7.23815e+01  2.31429e+01
       E -3.35505e+01 -2.98827e+01  2.55919e+01
3
# CELL(abcABC): 1322.94304  1322.94304  1322.94304    90.00000    90.00000    90.00000  Step:        4600  Bead:       8 positions{angstrom}  cell{angstrom}
       E -8.98776e+00  5.63807e+01 -8.14193e+01
       E -6.18347e+01  2.20045e+01 -4.43038e+00
       E  1.24808e+01 -2.71194e+00  5.29154e+01
3
# CELL(abcABC): 1322.94304  1322.94304  1322.94304    90.00000    90.00000    90.00000  Step:        4700  Bead:       8 positions{angstrom}  cell{angstrom}
       E -1.84276e+01  6.77731e+01 -8.44764e+01
       E -4.61487e+01  6.69932e+01 -3.14559e+01
       E  5.35121e+01 -5.15240e+00  1.21141e+01
3
# CELL(abcABC): 1322.94304  1322.94304  1322.94304    90.00000    90.00000    90.00000  Step:        4800  Bead:       8 positions{angstrom}  cell{angstrom}
       E  3.41376e+00  7.59610e+01 -1.06895e+01
       E -7.82120e+01  4.92730e+01  1.01381e+01
       E  3.46551e+01  2.20603e+01 -2.46214e+01
3
# CELL(abcABC): 1322.94304  1322.94304  1322.94304    90.00000    90.00000    90.00000  Step:        4900  Bead:       8 positions{angstrom}  cell{angstrom}
       E  2.29354e+01  6.26963e+01 -3.44937e+01
       E -7.92796e+01 -2.84632e+01 -4.84683e+01
       E  1.16268e+01  2.76806e+01 -4.61115e+01
3
# CELL(abcABC): 1322.94304  1322.94304  1322.94304    90.00000    90.00000    90.00000  Step:        5000  Bead:       8 positions{angstrom}  cell{angstrom}
       E  3.09135e+01  4.91516e+01  2.31827e+01
       E -4.12955e+01 -2.53193e+01 -1.58866e+01
       E -6.03890e+00  6.70247e+00 -4.89496e+01
3
# CELL(abcABC): 1322.94304  1322.94304  1322.94304    90.00000    90.00000    90.00000  Step:        5100  Bead:       8 positions{angstrom}  cell{angstrom}
       E  7.10480e+00  2.11302e+01 -9.85493e+00
       E -4.54198e+01 -2.10866e+01 -3.78831e+01
       E -7.08137e+00  2.42427e+01  4.67676e+00
3
# CELL(abcABC): 1322.94304  1322.94304  1322.94304    90.00000    90.00000    90.00000  Step:        5200  Bead:       8 positions{angstrom}  cell{angstrom}
       E  2.12711e+01  2.79839e+01  2.96809e+01
       E -5.84536e+01  1.75318e+01 -4.38852e+00
       E  3.36709e+00  3.11436e+00  1.29611e+01
3
# CELL(abcABC): 1322.94304  1322.94304  1322.94304    90.00000    90.00000    90.00000  Step:        5300  Bead:       8 positions{angstrom}  cell{angstrom}
       E  2.23110e+01  6.47143e+01  5.00104e+01
       E -3.26475e+01  3.16028e+01 -3.03074e+01
       E  2.64188e+01  5.02283e+01  2.57174e+01
3
# CELL(abcABC): 1322.94304  1322.94304  1322.94304    90.00000    90.00000    90.00000  Step:        5400  Bead:       8 positions{angstrom}  cell{angstrom}
       E  9.77092e+00  1.43915e+01  3.97762e+01
       E -3.37411e+01  2.48758e+01 -4.93581e+01
       E  2.85906e+01  1.99392e+01  5.54349e+01
3
# CELL(abcABC): 1322.94304  1322.94304  1322.94304    90.00000    90.00000    90.00000  Step:        5500  Bead:       8 positions{angstrom}  cell{angstrom}
       E  1.87413e+00  4.98795e+01  7.03750e+01
       E -4.62332e+01 -4.40768e+00 -4.00453e+01
       E -3.62677e+01  2.05165e+01  3.39708e+01
3
# CELL(abcABC): 1322.94304  1322.94304  1322.94304    90.00000    90.00000    90.00000  Step:        5600  Bead:       8 positions{angstrom}  cell{angstrom}
       E  5.19988e+00  1.05192e+01  1.47168e+01
       E -3.57031e+01  5.80079e+00 -2.13528e+01
       E -3.90868e+01  8.62377e+00  2.81692e+01
3
# CELL(abcABC): 1322.94304  1322.94304  1322.94304    90.00000    90.00000    90.00000  Step:        5700  Bead:       8 positions{angstrom}  cell{angstrom}
       E -2.20446e+01  3.20861e+00  3.24897e+00
       E -1.33763e+01  3.66180e+01 -1.59057e+01
       E -3.14499e+01  1.73006e+01  3.41924e+01
3
# CELL(abcABC): 1322.94304  1322.94304  1322.94304    90.00000    90.00000    90.00000  Step:        5800  Bead:       8 positions{angstrom}  cell{angstrom}
       E  3.57840e+00  2.36694e+01 -1.45196e+01
       E -6.62891e+00  1.08892e+01 -8.13625e-01
       E -1.23496e+01 -8.50060e-03  1.33651e+01
3
# CELL(abcABC): 1322.94304  1322.94304  1322.94304    90.00000    90.00000    90.00000  Step:        5900  Bead:       8 positions{angstrom}  cell{angstrom}
       E  1.67229e+00 -4.62042e-01 -5.96142e-01
       E -2.36181e+01  4.33674e+01 -4.25428e+01
       E -2.07374e+01 -1.75557e+01  7.52919e+00
3
# CELL(abcABC): 1322.94304  1322.94304  1322.94304    90.00000    90.00000    90.00000  Step:        6000  Bead:       8 positions{angstrom}  cell{angstrom}
       E  5.40690e+01 -3.02350e+01 -1.22021e+01
       E -1.69153e+01  3.05682e+00 -8.68316e+00
       E  2.25932e+00 -2.93702e+01  6.61133e+00
3
# CELL(abcABC): 1322.94304  1322.94304  1322.94304    90.00000    90.00000    90.00000  Step:        6100  Bead:       8 positions{angstrom}  cell{angstrom}
       E  5.67789e+01 -5.04458e+01 -6.35431e+01
       E  1.76928e+01  2.34454e+01  1.98579e+01
       E  8.45781e+00 -2.87012e+01 -1.88085e+01
3
# CELL(abcABC): 1322.94304  1322.94304  1322.94304    90.00000    90.00000    90.00000  Step:        6200  Bead:       8 positions{angstrom}  cell{angstrom}
       E  3.31007e+01 -5.00993e+01 -1.05627e+02
       E  8.39796e+01 -1.05610e+01 -3.11100e+01
       E  1.98084e+01  1.03483e+00 -1.20844e+01
3
# CELL(abcABC): 1322.94304  1322.94304  1322.94304    90.00000    90.00000    90.00000  Step:        6300  Bead:       8 positions{angstrom}  cell{angstrom}
       E  5.41914e+01 -5.57586e+01 -6.01275e+01
       E  7.17889e+01 -3.17190e+01 -2.56244e+01
       E  2.40235e+01 -3.42283e+01  2.29308e+00
3
# CELL(abcABC): 1322.94304  1322.94304  1322.94304    90.00000    90.00000    90.00000  Step:        6400  Bead:       8 positions{angstrom}  cell{angstrom}
       E  3.51693e+01 -7.18022e+01 -8.59567e+01
       E  1.16375e+02 -5.37324e+01 -4.61255e+01
       E  7.47224e+00 -1.97029e+01  2.10791e+01
3
# CELL(abcABC): 1322.94304  1322.94304  1322.94304    90.00000    90.00000    90.00000  Step:        6500  Bead:       8 positions{angstrom}  cell{angstrom}
       E -2.29256e+01 -1.04309e+02 -1.06316e+02
       E  5.59223e+01 -5.74316e+01 -4.99017e+01
       E  7.57023e+00 -3.79843e+01  1.90442e+01
3
# CELL(abcABC): 1322.94304  1322.94304  1322.94304    90.00000    90.00000    90.00000  Step:        6600  Bead:       8 positions{angstrom}  cell{angstrom}
       E -3.76372e+01 -8.44929e+01 -1.39622e+02
       E  5.05487e+00 -3.42561e+01 -2.67284e+01
       E  5.58614e+00 -1.23264e+01  2.99571e+01
3
# CELL(abcABC): 1322.94304  1322.94304  1322.94304    90.00000    90.00000    90.00000  Step:        6700  Bead:       8 positions{angstrom}  cell{angstrom}
       E -2.29992e+00 -6.82344e+01 -1.00230e+02
       E  4.26172e+01 -4.39708e+01 -1.36715e+01
       E  9.29514e+00  7.41778e+00  1.50240e+01
3
# CELL(abcABC): 1322.94304  1322.94304  1322.94304    90.00000    90.00000    90.00000  Step:        6800  Bead:       8 positions{angstrom}  cell{angstrom}
       E  8.77994e+00 -5.49250e+01 -6.52679e+01
       E  2.79222e+01  1.50487e+01 -2.49439e+01
       E -1.03030e+01  3.61163e+01  1.83376e+01
3
# CELL(abcABC): 1322.94304  1322.94304  1322.94304    90.00000    90.00000    90.00000  Step:        6900  Bead:       8 positions{angstrom}  cell{angstrom}
       E -1.44082e+01 -6.09954e+01 -5.71994e+01
       E  2.17191e+01 -4.87256e+01 -2.82228e+01
       E  1.61722e+01  2.58685e+01  9.48445e+00
3
# CELL(abcABC): 1322.94304  1322.94304  1322.94304    90.00000    90.00000    90.00000  Step:        7000  Bead:       8 positions{angstrom}  cell{angstrom}
       E -4.86947e+01 -5.45116e+01 -4.34645e+01
       E -1.00963e+01 -1.35079e+01  7.49366e+00
       E  1.32733e+01  5.83670e+01  3.25572e+01
3
# CELL(abcABC): 1322.94304  1322.94304  1322.94304    90.00000    90.00000    90.00000  Step:        7100  Bead:       8 positions{angstrom}  cell{angstrom}
       E -3.24924e+01 -4.07679e+01 -2.86007e+01
       E -1.66172e+01  6.74259e+00  3.90208e+01
       E  6.24386e+00  2.03495e+01  4.40171e+01
3
# CELL(abcABC): 1322.94304  1322.94304  1322.94304    90.00000    90.00000    90.00000  Step:        7200  Bead:       8 positions{angstrom}  cell{angstrom}
       E -1.08020e+01 -2.85243e+00 -1.58460e+01
       E -4.58321e+01  2.88737e+01  4.08260e+01
       E  4.87967e+01  1.91023e+01  2.79611e+01
3
# CELL(abcABC): 1322.94304  1322.94304  1322.94304    90.00000    90.00000    90.00000  Step:        7300  Bead:       8 positions{angstrom}  cell{angstrom}
       E -7.80685e-01 -2.80413e+01 -2.30001e+01
       E -1.15270e+01  4.43383e+01  3.68570e+01
       E  6.39340e+01  4.29666e+01 -3.95570e+01
3
# CELL(abcABC): 1322.94304  1322.94304  1322.94304    90.00000    90.00000    90.00000  Step:        7400  Bead:       8 positions{angstrom}  cell{angstrom}
       E -1.58026e+01 -6.82189e+01 -2.34744e+01
       E -7.87501e+00  4.32506e+01  5.28334e+01
       E  1.12076e+02  6.86827e+01 -7.11279e+00
3
# CELL(abcABC): 1322.94304  1322.94304  1322.94304    90.00000    90.00000    90.00000  Step:        7500  Bead:       8 positions{angstrom}  cell{angstrom}
       E -1.77637e+01 -6.56432e+01 -3.08536e+01
       E -1.62624e+01  1.31579e+01  1.23570e+01
       E  4.35484e+01  6.20495e+01 -4.71571e+01
3
# CELL(abcABC): 1322.94304  1322.94304  1322.94304    90.00000    90.00000    90.00000  Step:        7600  Bead:       8 positions{angstrom}  cell{angstrom}
       E -2.02481e+01 -9.60770e+01 -2.55368e+00
       E -2.34408e+01 -4.95060e+01 -2.28708e+01
       E  7.51874e+01  2.16031e+01  1.75345e+01
3
# CELL(abcABC): 1322.94304  1322.94304  1322.94304    90.00000    90.00000    90.00000  Step:        7700  Bead:       8 positions{angstrom}  cell{angstrom}
       E -9.17944e+00 -5.38373e+01 -3.54669e+01
       E -2.88519e+01 -6.57921e+01 -5.74107e+01
       E  5.60557e+01  2.88481e+01 -1.31365e+01
3
# CELL(abcABC): 1322.94304  1322.94304  1322.94304    90.00000    90.00000    90.00000  Step:        7800  Bead:       8 positions{angstrom}  cell{angstrom}
       E  2.52632e+01 -3.17440e+01 -5.49468e+01
       E  5.61179e+00 -4.49886e+01 -4.29284e+01
       E  5.84733e+01  1.50251e+01 -8.68866e+01
3
# CELL(abcABC): 1322.94304  1322.94304  1322.94304    90.00000    90.00000    90.00000  Step:        7900  Bead:       8 positions{angstrom}  cell{angstrom}
       E  1.02679e+01 -3.69968e+01 -4.00860e+01
       E  2.76270e+01 -2.90295e+01 -3.50754e+01
       E  4.33146e+01  2.43751e+01 -6.08165e+01
3
# CELL(abcABC): 1322.94304  1322.94304  1322.94304    90.00000    90.00000    90.00000  Step:        8000  Bead:       8 positions{angstrom}  cell{angstrom}
       E -1.36111e+00  1.99012e+01 -4.23811e+00
       E  3.71136e+01 -3.03860e+01 -4.91443e+01
       E -1.16520e+00  2.07129e+01 -4.02295e+00
3
# CELL(abcABC): 1322.94304  1322.94304  1322.94304    90.00000    90.00000    90.00000  Step:        8100  Bead:       8 positions{angstrom}  cell{angstrom}
       E  3.57260e+01 -1.00419e+01 -1.14537e+01
       E  2.34814e+00 -2.41876e+01 -2.11976e+00
       E  3.96072e+00  6.32950e-01  9.31878e+00
3
# CELL(abcABC): 1322.94304  1322.94304  1322.94304    90.00000    90.00000    90.00000  Step:        8200  Bead:       8 positions{angstrom}  cell{angstrom}
       E  1.82956e+01  3.02434e+01 -5.30450e+01
       E  1.68294e+01  3.92205e+00  2.41814e+01
       E  2.20903e+01 -1.02728e+01  1.52074e+01
3
# CELL(abcABC): 1322.94304  1322.94304  1322.94304    90.00000    90.00000    90.00000  Step:        8300  Bead:       8 positions{angstrom}  cell{angstrom}
       E  3.49999e+01  2.22043e+01 -7.57602e+01
       E -1.87273e+01  1.23225e+01  3.08713e+01
       E  4.24587e+01 -2.72158e+01  1.11567e+01
3
# CELL(abcABC): 1322.94304  1322.94304  1322.94304    90.00000    90.00000    90.00000  Step:        8400  Bead:       8 positions{angstrom}  cell{angstrom}
       E  1.86842e+01  3.40177e+01 -3.58631e+01
       E  6.00901e+00  1.64326e+01  1.87911e+01
       E  5.12949e+01 -3.99068e+00  3.82284e+01
3
# CELL(abcABC): 1322.94304  1322.94304  1322.94304    90.00000    90.00000    90.00000  Step:        8500  Bead:       8 positions{angstrom}  cell{angstrom}
       E -3.61225e+01  1.22817e+01 -1.47687e+01
       E  3.78793e+01 -1.63825e+01  1.06681e+01
       E  5.31466e+01 -6.92846e+00  3.96233e+01
3
# CELL(abcABC): 1322.94304  1322.94304  1322.94304    90.00000    90.00000    90.00000  Step:        8600  Bead:       8 positions{angstrom}  cell{angstrom}
       E -5.14203e+01  3.45766e+01 -4.39238e+00
       E  3.74916e+01  2.80420e+01 -3.51363e+01
       E  2.92799e+01 -1.58673e+01  2.06588e+01
3
# CELL(abcABC): 1322.94304  1322.94304  1322.94304    90.00000    90.00000    90.00000  Step:        8700  Bead:       8 positions{angstrom}  cell{angstrom}
       E -2.27399e+01  2.42360e+01 -5.30866e+00
       E  2.78331e+01  8.65049e+00 -2.42813e+00
       E  2.63457e+01 -5.24491e+01  1.39945e+01
3
# CELL(abcABC): 1322.94304  1322.94304  1322.94304    90.00000    90.00000    90.00000  Step:        8800  Bead:       8 positions{angstrom}  cell{angstrom}
       E -1.33720e+01  5.78752e+01  2.15530e+01
       E  1.27445e+01  2.78503e+00 -9.50401e+00
       E  3.35273e+01 -3.70889e+01  6.71889e+01
3
# CELL(abcABC): 1322.94304  1322.94304  1322.94304    90.00000    90.00000    90.00000  Step:        8900  Bead:       8 positions{angstrom}  cell{angstrom}
       E  2.02053e+01 -9.16909e+00  1.35509e+01
       E -4.33641e+00 -5.34259e+01  3.66610e+01
       E  3.58870e+01 -5.92635e+01  5.75062e+01
3
# CELL(abcABC): 1322.94304  1322.94304  1322.94304    90.00000    90.00000    90.00000  Step:        9000  Bead:       8 positions{angstrom}  cell{angstrom}
       E -1.45108e+00  8.19632e+00  2.93030e+01
       E -1.15621e+01 -2.06180e+01  5.66997e+01
       E  3.18550e+01 -4.22104e+01  3.34506e+00
3
# CELL(abcABC): 1322.94304  1322.94304  1322.94304    90.00000    90.00000    90.00000  Step:        9100  Bead:       8 positions{angstrom}  cell{angstrom}
       E -8.29159e+00  5.54438e+01  1.10331e+01
       E -3.70389e+01 -9.46755e+00  5.89569e+01
       E  1.41626e+01 -4.94996e+01  2.34815e+01
3
# CELL(abcABC): 1322.94304  1322.94304  1322.94304    90.00000    90.00000    90.00000  Step:        9200  Bead:       8 positions{angstrom}  cell{angstrom}
       E  2.06058e+01  3.51220e+01  8.80379e+00
       E  9.99581e+00  3.43611e-01  2.42526e+01
       E  1.83264e+01 -3.93033e+01  3.16963e+01
3
# CELL(abcABC): 1322.94304  1322.94304  1322.94304    90.00000    90.00000    90.00000  Step:        9300  Bead:       8 positions{angstrom}  cell{angstrom}
       E  1.00416e+01  4.19164e+01 -8.07760e+00
       E  7.97455e+00 -2.61358e+01  2.14065e+01
       E  1.46804e+01 -5.02238e+01 -2.66827e+00
3
# CELL(abcABC): 1322.94304  1322.94304  1322.94304    90.00000    90.00000    90.00000  Step:        9400  Bead:       8 positions{angstrom}  cell{angstrom}
       E  3.30363e+01  2.85656e+01 -5.62427e+01
       E -1.42299e+01 -5.25087e+01  1.49557e+01
       E  4.91794e+01 -3.83479e+01  1.18602e+01
3
# CELL(abcABC): 1322.94304  1322.94304  1322.94304    90.00000    90.00000    90.00000  Step:        9500  Bead:       8 positions{angstrom}  cell{angstrom}
       E  1.23839e+01  2.97577e+01 -4.78226e+01
       E -1.00599e+00 -5.45188e+01  1.95949e+01
       E  2.71385e+01 -2.34327e+01  2.06153e+00
3
# CELL(abcABC): 1322.94304  1322.94304  1322.94304    90.00000    90.00000    90.00000  Step:        9600  Bead:       8 positions{angstrom}  cell{angstrom}
       E  1.84055e+00  1.13436e+01 -3.49204e+01
       E  5.44894e+01 -4.24357e+01  3.87611e+01
       E  3.97992e+00 -1.19399e+01  1.79044e+01
3
# CELL(abcABC): 1322.94304  1322.94304  1322.94304    90.00000    90.00000    90.00000  Step:        9700  Bead:       8 positions{angstrom}  cell{angstrom}
       E  4.52071e+00 -2.35602e+01 -7.24535e+01
       E  6.41803e+01 -7.28499e+01  1.32442e+01
       E  1.67984e+01 -5.36726e+01 -2.21349e-01
3
# CELL(abcABC): 1322.94304  1322.94304  1322.94304    90.00000    90.00000    90.00000  Step:        9800  Bead:       8 positions{angstrom}  cell{angstrom}
       E -3.65142e+01 -6.02923e+01 -8.97851e+01
       E  4.98559e+01 -6.49560e+01 -1.28967e+01
       E  3.69104e+00 -1.39761e+01  1.35419e+01
3