3
# CELL(abcABC): 1322.94304  1322.94304  1322.94304    90.00000    90.00000    90.00000  Step:           0  Bead:       6 positions{angstrom}  cell{angstrom}
       E  0.00000e+00  0.00000e+00  0.00000e+00
       E  0.00000e+00  0.00000e+00  0.00000e+00
       E  0.00000e+00  0.00000e+00  0.00000e+00
3
# CELL(abcABC): 1322.94304  1322.94304  1322.94304    90.00000    90.00000    90.00000  Step:         100  Bead:       6 positions{angstrom}  cell{angstrom}
       E -2.62707e+01 -2.70647e+01  1.30691e+01
       E -1.38930e+01  4.86787e+00 -1.47438e+01
       E -7.95266e+00  9.15503e-02 -2.12576e+00
3
# CELL(abcABC): 1322.94304  1322.94304  1322.94304    90.00000    90.00000    90.00000  Step:         200  Bead:       6 positions{angstrom}  cell{angstrom}
       E -2.16577e+01 -3.26103e+01 -8.07487e+00
       E  2.87405e+01  1.15996e+01 -2.75740e+01
       E -3.03734e+01  8.90660e+00  2.03428e+01
3
# CELL(abcABC): 1322.94304  1322.94304  1322.94304    90.00000    90.00000    90.00000  Step:         300  Bead:       6 positions{angstrom}  cell{angstrom}
       E -1.41142e+01 -3.21827e+01 -2.58368e+01
       E -4.92099e+00  1.81968e+00 -3.78953e+01
       E -3.01379e+01  3.42959e+01  2.16437e+01
3
# CELL(abcABC): 1322.94304  1322.94304  1322.94304    90.00000    90.00000    90.00000  Step:         400  Bead:       6 positions{angstrom}  cell{angstrom}
       E  1.52334e+01  4.28793e+00  1.65246e+01
       E  1.07707e+01  7.84529e+00 -1.53311e+01
       E -7.01669e+00  5.52044e+01  2.73734e+01
3
# CELL(abcABC): 1322.94304  1322.94304  1322.94304    90.00000    90.00000    90.00000  Step:         500  Bead:       6 positions{angstrom}  cell{angstrom}
       E -7.53050e-01  1.62658e+01 -2.31568e+01
       E -1.73453e+01 -5.74842e+00  1.14996e+01
       E -2.90551e+01  3.24917e+01  3.58573e+00
3
# CELL(abcABC): 1322.94304  1322.94304  1322.94304    90.00000    90.00000    90.00000  Step:         600  Bead:       6 positions{angstrom}  cell{angstrom}
       E -3.36719e+01  1.69277e+01 -4.35620e+01
       E  4.37187e-01 -2.43315e+01  4.08349e+01
       E -1.36561e+01 -1.18383e+01  1.17032e+01
3
# CELL(abcABC): 1322.94304  1322.94304  1322.94304    90.00000    90.00000    90.00000  Step:         700  Bead:       6 positions{angstrom}  cell{angstrom}
       E  9.99719e+00  7.61479e+00 -4.37473e+01
       E -1.37061e+01  1.49415e+01  2.29964e+01
       E  3.11244e+00  2.15824e+01  3.82385e+01
3
# CELL(abcABC): 1322.94304  1322.94304  1322.94304    90.00000    90.00000    90.00000  Step:         800  Bead:       6 positions{angstrom}  cell{angstrom}
       E -3.04889e+01  1.83825e+01 -5.67662e+01
       E  1.02066e+01  3.85740e+01 -8.90871e+00
       E -7.81769e+01  3.20385e+01  7.05801e+01
3
# CELL(abcABC): 1322.94304  1322.94304  1322.94304    90.00000    90.00000    90.00000  Step:         900  Bead:       6 positions{angstrom}  cell{angstrom}
       E  1.34468e+01 -4.14743e+01 -1.85514e+01
       E  3.39290e+01 -4.32392e+00 -1.71676e+01
       E -4.23512e+01  4.31327e+01  9.80827e+01
3
# CELL(abcABC): 1322.94304  1322.94304  1322.94304    90.00000    90.00000    90.00000  Step:        1000  Bead:       6 positions{angstrom}  cell{angstrom}
       E  4.56248e+00  1.48868e+01 -5.32784e+01
       E  2.98489e+01 -1.15825e+00 -1.42472e+01
       E -3.24831e+01 -1.79216e+00  9.83577e+01
3
# CELL(abcABC): 1322.94304  1322.94304  1322.94304    90.00000    90.00000    90.00000  Step:        1100  Bead:       6 positions{angstrom}  cell{angstrom}
       E  1.43736e+01 -2.33695e+00 -6.78040e+01
       E  5.18391e+01 -1.54520e+01 -5.56465e+01
       E -4.58974e+01 -9.61429e+00  5.60432e+01
3
# CELL(abcABC): 1322.94304  1322.94304  1322.94304    90.00000    90.00000    90.00000  Step:        1200  Bead:       6 positions{angstrom}  cell{angstrom}
       E  2.80342e+01  2.20859e+01 -6.72873e+01
       E  2.76791e+01 -2.61915e+01 -9.20828e+01
       E -4.90627e+01  1.25725e+01  5.52703e+01
3
# CELL(abcABC): 1322.94304  1322.94304  1322.94304    90.00000    90.00000    90.00000  Step:        1300  Bead:       6 positions{angstrom}  cell{angstrom}
       E -2.05047e+00 -8.81040e+00 -6.28206e+01
       E -2.10287e+01 -9.09064e+01 -5.88245e+01
       E -3.74278e+01  4.01802e+01  2.95272e+01
3
# CELL(abcABC): 1322.94304  1322.94304  1322.94304    90.00000    90.00000    90.00000  Step:        1400  Bead:       6 positions{angstrom}  cell{angstrom}
       E -3.10821e+01  1.20606e+01 -6.31970e+01
       E -8.20092e+00 -2.52219e+01 -2.92936e+01
       E -4.17414e+01  2.37602e+01  3.41752e+01
3
# CELL(abcABC): 1322.94304  1322.94304  1322.94304    90.00000    90.00000    90.00000  Step:        1500  Bead:       6 positions{angstrom}  cell{angstrom}
       E -4.08682e+01  3.76407e+01 -8.36363e+01
       E  1.28879e+01 -9.46110e+00 -2.11523e+01
       E -5.47189e+01  3.69886e+01  3.06529e+01
3
# CELL(abcABC): 1322.94304  1322.94304  1322.94304    90.00000    90.00000    90.00000  Step:        1600  Bead:       6 positions{angstrom}  cell{angstrom}
       E -2.30896e+01  4.92157e+01 -4.13599e+01
       E -7.60661e+00 -1.91666e+00  6.96559e+00
       E -4.83532e+01  5.72466e+01  2.43122e+01
3
# CELL(abcABC): 1322.94304  1322.94304  1322.94304    90.00000    90.00000    90.00000  Step:        1700  Bead:       6 positions{angstrom}  cell{angstrom}
       E -1.27728e+01  4.70657e+01 -2.61337e+01
       E -8.84099e+00  1.37780e+01  5.22503e+00
       E -2.41265e+01  7.30381e+01  2.37719e+01
3
# CELL(abcABC): 1322.94304  1322.94304  1322.94304    90.00000    90.00000    90.00000  Step:        1800  Bead:       6 positions{angstrom}  cell{angstrom}
       E -1.03863e+01  3.88962e+01  1.05396e+00
       E -1.72945e+01  3.29450e+01 -3.62262e+00
       E -5.18821e+01  5.48688e+01  7.19321e+01
3
# CELL(abcABC): 1322.94304  1322.94304  1322.94304    90.00000    90.00000    90.00000  Step:        1900  Bead:       6 positions{angstrom}  cell{angstrom}
       E -1.01517e+01  4.36110e+01  1.01247e+01
       E -8.07690e+01  2.26880e+01  2.28075e+01
       E -6.22579e+01  4.63071e+01  3.89457e+01
3
# CELL(abcABC): 1322.94304  1322.94304  1322.94304    90.00000    90.00000    90.00000  Step:        2000  Bead:       6 positions{angstrom}  cell{angstrom}
       E  1.18600e+00 -1.08812e+01  2.61173e+01
       E -6.75495e+01  2.94270e+01  2.77905e+01
       E -7.57501e+01  4.50856e+01  1.40829e+01
3
# CELL(abcABC): 1322.94304  1322.94304  1322.94304    90.00000    90.00000    90.00000  Step:        2100  Bead:       6 positions{angstrom}  cell{angstrom}
       E -1.69834e+01 -2.53902e+01  4.85572e+01
       E -3.37386e+01  1.32394e+01  1.24548e+01
       E -6.38897e+01  3.63785e+01 -3.01671e+00
3
# CELL(abcABC): 1322.94304  1322.94304  1322.94304    90.00000    90.00000    90.00000  Step:        2200  Bead:       6 positions{angstrom}  cell{angstrom}
       E -1.73265e+01 -4.87887e+01  4.68167e+01
       E -3.59585e+01 -3.04126e+01 -3.94412e+01
       E -4.26782e+01  9.08644e+01  2.72198e+01
3
# CELL(abcABC): 1322.94304  1322.94304  1322.94304    90.00000    90.00000    90.00000  Step:        2300  Bead:       6 positions{angstrom}  cell{angstrom}
       E -8.86535e+00 -7.88149e+01  3.55893e+01
       E -2.47404e+01 -4.62958e+01 -3.76339e+01
       E -3.52457e+01  8.76622e+01  3.76341e+01
3
# CELL(abcABC): 1322.94304  1322.94304  1322.94304    90.00000    90.00000    90.00000  Step:        2400  Bead:       6 positions{angstrom}  cell{angstrom}
       E -1.95580e+01 -5.18782e+01  4.08524e+01
       E  3.05474e+01 -5.29151e+01 -2.43048e+01
       E -1.00899e+01  6.30407e+01  3.63449e+01
3
# CELL(abcABC): 1322.94304  1322.94304  1322.94304    90.00000    90.00000    90.00000  Step:        2500  Bead:       6 positions{angstrom}  cell{angstrom}
       E -6.94083e+00 -2.42391e+01  5.25296e+01
       E -2.22371e+01 -2.03544e+01 -4.22343e+01
       E -1.87326e+01  1.20537e+01  7.78441e+01
3
# CELL(abcABC): 1322.94304  1322.94304  1322.94304    90.00000    90.00000    90.00000  Step:        2600  Bead:       6 positions{angstrom}  cell{angstrom}
       E  1.57594e+01 -5.42468e+01  7.52014e+01
       E -4.14078e+01 -4.72696e+01 -6.76545e+01
       E  1.49229e+00 -6.56588e+00  6.83680e+01
3
# CELL(abcABC): 1322.94304  1322.94304  1322.94304    90.00000    90.00000    90.00000  Step:        2700  Bead:       6 positions{angstrom}  cell{angstrom}
       E  6.94477e+00 -4.58701e+01  8.92298e+01
       E -8.03525e+01 -5.24021e+01 -3.53753e+01
       E  1.53780e+01 -9.86250e+00  4.04466e+01
3
# CELL(abcABC): 1322.94304  1322.94304  1322.94304    90.00000    90.00000    90.00000  Step:        2800  Bead:       6 positions{angstrom}  cell{angstrom}
       E -4.48364e+01 -3.75997e+01  1.72290e+01
       E -2.82640e+01 -4.50517e+01 -4.20194e+01
       E  3.08111e+01 -4.31369e+00  4.34219e+01
3
# CELL(abcABC): 1322.94304  1322.94304  1322.94304    90.00000    90.00000    90.00000  Step:        2900  Bead:       6 positions{angstrom}  cell{angstrom}
       E -5.31811e+01 -6.76725e+01 -1.32152e+01
       E -2.79008e+01 -3.93741e+01 -2.62146e+01
       E  4.39080e+01  1.10599e+00  3.84765e+01
3
# CELL(abcABC): 1322.94304  1322.94304  1322.94304    90.00000    90.00000    90.00000  Step:        3000  Bead:       6 positions{angstrom}  cell{angstrom}
       E -5.14814e+01 -4.61428e+01 -3.39422e+01
       E -3.80610e+01 -4.88250e+01 -6.44364e+00
       E  5.64609e+01  2.01402e+01  2.44173e+01
3
# CELL(abcABC): 1322.94304  1322.94304  1322.94304    90.00000    90.00000    90.00000  Step:        3100  Bead:       6 positions{angstrom}  cell{angstrom}
       E -4.98058e+01 -5.15793e+01  1.76555e+01
       E -3.15865e+01 -6.47576e+01  2.49905e+01
       E  2.95119e+01  3.19058e+01  2.09746e+01
3
# CELL(abcABC): 1322.94304  1322.94304  1322.94304    90.00000    90.00000    90.00000  Step:        3200  Bead:       6 positions{angstrom}  cell{angstrom}
       E -6.64375e+01  6.86082e+00  4.64394e+01
       E -6.47611e+01 -5.72395e+01  3.58144e+01
       E  4.45419e+01  5.60067e+01  2.29641e-01
3
# CELL(abcABC): 1322.94304  1322.94304  1322.94304    90.00000    90.00000    90.00000  Step:        3300  Bead:       6 positions{angstrom}  cell{angstrom}
       E -6.07747e+01 -1.22372e+01  4.55154e+01
       E -8.00305e+01 -2.50530e+01  5.24790e+01
       E  6.95983e+01  6.01468e+01  3.85532e+01
3
# CELL(abcABC): 1322.94304  1322.94304  1322.94304    90.00000    90.00000    90.00000  Step:        3400  Bead:       6 positions{angstrom}  cell{angstrom}
       E -7.19671e+01 -1.71206e+01  3.52903e+01
       E -7.60144e+01 -6.08554e+01  5.59693e+01
       E  3.93506e-01  5.47410e+01  5.45017e+01
3
# CELL(abcABC): 1322.94304  1322.94304  1322.94304    90.00000    90.00000    90.00000  Step:        3500  Bead:       6 positions{angstrom}  cell{angstrom}
       E -8.12153e+01 -1.41259e+01  3.17046e+01
       E -2.66328e+01 -5.53239e+01  5.43300e+01
       E  1.05204e+01  6.13105e+01  5.16239e+01
3
# CELL(abcABC): 1322.94304  1322.94304  1322.94304    90.00000    90.00000    90.00000  Step:        3600  Bead:       6 positions{angstrom}  cell{angstrom}
       E -6.21650e+01 -3.36832e+01  7.83504e+00
       E -8.99927e+00 -4.75657e+01  1.42443e+01
       E -3.52859e+01  5.74360e+01  2.40346e+01
3
# CELL(abcABC): 1322.94304  1322.94304  1322.94304    90.00000    90.00000    90.00000  Step:        3700  Bead:       6 positions{angstrom}  cell{angstrom}
       E -9.71247e+01 -5.10740e+01 -2.46837e+01
       E -2.01328e+01 -1.60132e+01  1.77696e+01
       E -4.50684e+01  2.26684e+01 -2.01109e+01
3
# CELL(abcABC): 1322.94304  1322.94304  1322.94304    90.00000    90.00000    90.00000  Step:        3800  Bead:       6 positions{angstrom}  cell{angstrom}
       E -8.30907e+01 -4.83618e+01 -4.86529e+01
       E -3.42390e+01 -3.82801e+01 -3.97722e+00
       E -4.20089e+01  1.13824e+01 -1.66871e+00
3
# CELL(abcABC): 1322.94304  1322.94304  1322.94304    90.00000    90.00000    90.00000  Step:        3900  Bead:       6 positions{angstrom}  cell{angstrom}
       E -7.29903e+01  9.64141e+00 -7.65604e+00
       E -1.30951e+01 -7.96714e+00 -4.29941e+01
       E -1.48786e+01 -4.64241e+01  6.95614e-02
3
# CELL(abcABC): 1322.94304  1322.94304  1322.94304    90.00000    90.00000    90.00000  Step:        4000  Bead:       6 positions{angstrom}  cell{angstrom}
       E -1.29941e+02  1.81040e+01 -2.16238e+01
       E -3.93564e+01 -6.50192e+00  3.43954e+00
       E -1.96113e+01  3.61632e+00  3.29110e+00
3
# CELL(abcABC): 1322.94304  1322.94304  1322.94304    90.00000    90.00000    90.00000  Step:        4100  Bead:       6 positions{angstrom}  cell{angstrom}
       E -1.31072e+02  7.29702e+01 -6.47564e+01
       E  1.89080e+00  2.41123e+01  3.53486e+01
       E -2.03087e+01  9.22111e+00  4.15836e+01
3
# CELL(abcABC): 1322.94304  1322.94304  1322.94304    90.00000    90.00000    90.00000  Step:        4200  Bead:       6 positions{angstrom}  cell{angstrom}
       E -5.19323e+01  6.97786e+01 -4.30609e+01
       E -2.57138e+01  2.81222e+01  4.37173e+01
       E -5.03108e+01 -9.76671e+00  2.36864e+01
3
# CELL(abcABC): 1322.94304  1322.94304  1322.94304    90.00000    90.00000    90.00000  Step:        4300  Bead:       6 positions{angstrom}  cell{angstrom}
       E -6.13821e+01  1.48565e+01 -7.92136e+01
       E -3.10261e+01  3.30571e+01  5.82846e+01
       E -3.80987e+01 -3.77108e+01  1.17912e+01
3
# CELL(abcABC): 1322.94304  1322.94304  1322.94304    90.00000    90.00000    90.00000  Step:        4400  Bead:       6 positions{angstrom}  cell{angstrom}
       E -7.84826e+01  1.26698e+01 -9.07376e+01
       E -7.18976e+01  8.00488e+01  3.46549e+01
       E -3.57377e+01 -2.22706e+01  1.67261e+01
3
# CELL(abcABC): 1322.94304  1322.94304  1322.94304    90.00000    90.00000    90.00000  Step:        4500  Bead:       6 positions{angstrom}  cell{angstrom}
       E -5.35804e+01  2.56351e+01 -6.23967e+01
       E -5.41027e+01  8.11003e+01  8.25782e+00
       E -1.55866e+01 -2.73750e+01  3.96153e+01
3
# CELL(abcABC): 1322.94304  1322.94304  1322.94304    90.00000    90.00000    90.00000  Step:        4600  Bead:       6 positions{angstrom}  cell{angstrom}
       E  6.77914e+00  3.76132e+01 -8.96326e+01
       E -7.48750e+01  3.42809e+01 -3.74481e+00
       E -1.88856e+01  1.05721e+01  3.47920e+01
3
# CELL(abcABC): 1322.94304  1322.94304  1322.94304    90.00000    90.00000    90.00000  Step:        4700  Bead:       6 positions{angstrom}  cell{angstrom}
       E  5.51607e+00  5.08265e+01 -6.75864e+01
       E -6.28409e+01  6.07458e+01 -1.58316e+01
       E  2.42681e+00  2.75315e+01 -1.71072e+01
3
# CELL(abcABC): 1322.94304  1322.94304  1322.94304    90.00000    90.00000    90.00000  Step:        4800  Bead:       6 positions{angstrom}  cell{angstrom}
       E  1.68678e+01  5.67727e+01 -2.29185e+01
       E -5.08604e+01  2.11777e+01 -1.74962e+00
       E  3.31691e+01  3.19218e+01 -4.47469e+01
3
# CELL(abcABC): 1322.94304  1322.94304  1322.94304    90.00000    90.00000    90.00000  Step:        4900  Bead:       6 positions{angstrom}  cell{angstrom}
       E  3.23943e+01  4.90438e+01 -2.42371e+01
       E -9.42257e+01 -1.83615e+01 -1.72659e+01
       E -1.53534e+00  2.36593e+01 -6.41934e+01
3
# CELL(abcABC): 1322.94304  1322.94304  1322.94304    90.00000    90.00000    90.00000  Step:        5000  Bead:       6 positions{angstrom}  cell{angstrom}
       E  4.03732e+01  2.41727e+01  2.31900e+01
       E -6.05135e+01 -5.38666e+01 -2.08848e+01
       E -2.04152e+01  1.41937e+01 -5.89579e+01
3
# CELL(abcABC): 1322.94304  1322.94304  1322.94304    90.00000    90.00000    90.00000  Step:        5100  Bead:       6 positions{angstrom}  cell{angstrom}
       E  1.80663e+01  2.01640e+01  2.50913e+00
       E -4.81943e+01 -3.99599e+01 -2.85169e+00
       E  1.39126e+01  5.15507e+00 -3.34625e+00
3
# CELL(abcABC): 1322.94304  1322.94304  1322.94304    90.00000    90.00000    90.00000  Step:        5200  Bead:       6 positions{angstrom}  cell{angstrom}
       E  2.70839e+01  5.20205e+01  4.91099e+00
       E -5.19064e+01 -8.43798e+00  9.82808e-01
       E  1.56397e+01  1.20908e+01  8.38242e+00
3
# CELL(abcABC): 1322.94304  1322.94304  1322.94304    90.00000    90.00000    90.00000  Step:        5300  Bead:       6 positions{angstrom}  cell{angstrom}
       E  1.32466e+01  4.93962e+01  4.00335e+01
       E -3.51651e+01  1.73787e+01 -2.19005e+01
       E  2.01645e+01  3.88466e+01  3.33817e+00
3
# CELL(abcABC): 1322.94304  1322.94304  1322.94304    90.00000    90.00000    90.00000  Step:        5400  Bead:       6 positions{angstrom}  cell{angstrom}
       E  8.87041e+00  6.62446e+00  3.22395e+01
       E -4.47740e+01  4.00096e-01 -3.21673e+01
       E  5.88653e+00  1.41001e+01  2.43176e+01
3
# CELL(abcABC): 1322.94304  1322.94304  1322.94304    90.00000    90.00000    90.00000  Step:        5500  Bead:       6 positions{angstrom}  cell{angstrom}
       E -9.97685e+00  3.61973e+01  3.90414e+01
       E -5.67293e+01 -2.43928e+00 -2.83364e+01
       E  2.24193e+00  2.21435e+01  4.60003e+01
3
# CELL(abcABC): 1322.94304  1322.94304  1322.94304    90.00000    90.00000    90.00000  Step:        5600  Bead:       6 positions{angstrom}  cell{angstrom}
       E  1.28917e+01  3.63352e+01 -4.87861e+00
       E  6.78861e+00  1.83915e+01 -1.61804e+01
       E -1.75550e+01  2.65492e+01  5.18237e+01
3
# CELL(abcABC): 1322.94304  1322.94304  1322.94304    90.00000    90.00000    90.00000  Step:        5700  Bead:       6 positions{angstrom}  cell{angstrom}
       E -2.59980e+01  4.30578e+01 -1.41861e+01
       E  5.46279e+00  3.55152e+01  5.37700e+00
       E -4.98793e+01  2.89081e+01  1.46431e+01
3
# CELL(abcABC): 1322.94304  1322.94304  1322.94304    90.00000    90.00000    90.00000  Step:        5800  Bead:       6 positions{angstrom}  cell{angstrom}
       E -6.35400e+00  2.43519e+01 -1.08055e+01
       E -2.88961e+01  1.51831e+01 -3.06141e+00
       E -1.53095e+01  1.36674e+01  2.32414e+01
3
# CELL(abcABC): 1322.94304  1322.94304  1322.94304    90.00000    90.00000    90.00000  Step:        5900  Bead:       6 positions{angstrom}  cell{angstrom}
       E -1.41560e+01 -5.59999e+00  2.10448e+01
       E -5.72505e+01  1.86932e+01 -2.37777e+01
       E -4.11564e+01 -1.11235e+01  1.46172e+00
3
# CELL(abcABC): 1322.94304  1322.94304  1322.94304    90.00000    90.00000    90.00000  Step:        6000  Bead:       6 positions{angstrom}  cell{angstrom}
       E  2.56879e+01 -3.13072e+01 -9.03656e+00
       E -3.99053e+01  1.06985e+01 -2.05896e+01
       E  2.13655e+01 -3.09552e+01 -1.61629e+00
3
# CELL(abcABC): 1322.94304  1322.94304  1322.94304    90.00000    90.00000    90.00000  Step:        6100  Bead:       6 positions{angstrom}  cell{angstrom}
       E  2.89162e+01 -2.95529e+01 -4.95570e+01
       E  6.23980e+00  2.69049e+01  2.34053e+01
       E  3.18137e+01 -9.38873e-02 -3.50328e+01
3
# CELL(abcABC): 1322.94304  1322.94304  1322.94304    90.00000    90.00000    90.00000  Step:        6200  Bead:       6 positions{angstrom}  cell{angstrom}
       E  2.47452e+01 -4.83553e+01 -9.83107e+01
       E  6.31240e+01 -3.06640e+01 -1.29435e+00
       E  3.41720e+01 -1.63325e+01 -2.78623e+01
3
# CELL(abcABC): 1322.94304  1322.94304  1322.94304    90.00000    90.00000    90.00000  Step:        6300  Bead:       6 positions{angstrom}  cell{angstrom}
       E  3.69997e+01 -4.03400e+01 -9.64940e+01
       E  6.53140e+01 -2.94098e+01 -1.10255e+00
       E  2.57753e+01 -2.45389e+01 -4.29845e+00
3
# CELL(abcABC): 1322.94304  1322.94304  1322.94304    90.00000    90.00000    90.00000  Step:        6400  Bead:       6 positions{angstrom}  cell{angstrom}
       E  1.48499e+01 -4.49945e+01 -9.51603e+01
       E  7.88236e+01 -3.73080e+01 -2.26733e+01
       E  1.54287e+01 -4.73138e+01  2.73552e+01
3
# CELL(abcABC): 1322.94304  1322.94304  1322.94304    90.00000    90.00000    90.00000  Step:        6500  Bead:       6 positions{angstrom}  cell{angstrom}
       E -3.13863e+01 -1.15845e+02 -1.09255e+02
       E  5.93074e+01 -4.43530e+01 -3.93439e+01
       E -2.71081e+00 -3.88069e+01  1.51982e+01
3
# CELL(abcABC): 1322.94304  1322.94304  1322.94304    90.00000    90.00000    90.00000  Step:        6600  Bead:       6 positions{angstrom}  cell{angstrom}
       E -6.95744e+00 -1.03652e+02 -1.55398e+02
       E -5.39592e+00 -2.52742e+01 -2.92916e+01
       E  9.10579e+00 -1.32802e+01  3.16761e+01
3
# CELL(abcABC): 1322.94304  1322.94304  1322.94304    90.00000    90.00000    90.00000  Step:        6700  Bead:       6 positions{angstrom}  cell{angstrom}
       E -1.55740e+01 -8.09657e+01 -1.21473e+02
       E  1.67039e+01 -6.01024e+01 -1.67127e+01
       E -4.98205e+00 -1.18683e+01  1.30052e+01
3
# CELL(abcABC): 1322.94304  1322.94304  1322.94304    90.00000    90.00000    90.00000  Step:        6800  Bead:       6 positions{angstrom}  cell{angstrom}
       E  4.73592e+00 -8.20879e+01 -6.23657e+01
       E  8.05194e+00 -1.79395e+01 -3.02128e+00
       E -2.18898e+01  4.19642e+01  2.60134e+01
3
# CELL(abcABC): 1322.94304  1322.94304  1322.94304    90.00000    90.00000    90.00000  Step:        6900  Bead:       6 positions{angstrom}  cell{angstrom}
       E -2.11526e+01 -4.20453e+01 -6.14807e+01
       E  1.78792e+01 -1.46154e+01 -3.44638e+01
       E -1.36778e+01  3.85587e+01  1.42383e+01
3
# CELL(abcABC): 1322.94304  1322.94304  1322.94304    90.00000    90.00000    90.00000  Step:        7000  Bead:       6 positions{angstrom}  cell{angstrom}
       E -4.77856e+01 -4.62556e+01 -4.23326e+01
       E  2.24480e+00  2.78659e+00 -8.43452e+00
       E  1.32008e+01  1.54529e+01  2.37541e+01
3
# CELL(abcABC): 1322.94304  1322.94304  1322.94304    90.00000    90.00000    90.00000  Step:        7100  Bead:       6 positions{angstrom}  cell{angstrom}
       E  5.46025e-01 -2.71573e+01 -2.13876e+01
       E -6.66455e+00  2.57969e+01  1.26514e+01
       E  6.24570e+00  1.25947e+01  5.64216e+01
3
# CELL(abcABC): 1322.94304  1322.94304  1322.94304    90.00000    90.00000    90.00000  Step:        7200  Bead:       6 positions{angstrom}  cell{angstrom}
       E -5.26390e+00 -3.39762e+01 -3.20735e+01
       E -1.88542e+01  4.61765e+01  5.02334e+01
       E  3.65126e+01  4.52059e+01  1.43100e+01
3
# CELL(abcABC): 1322.94304  1322.94304  1322.94304    90.00000    90.00000    90.00000  Step:        7300  Bead:       6 positions{angstrom}  cell{angstrom}
       E -3.76580e+00 -3.22163e+01 -6.61565e+00
       E  8.37675e-01  4.61117e+01  2.18872e+01
       E  1.04653e+02  3.53750e+01 -3.10218e+00
3
# CELL(abcABC): 1322.94304  1322.94304  1322.94304    90.00000    90.00000    90.00000  Step:        7400  Bead:       6 positions{angstrom}  cell{angstrom}
       E -1.48527e+01 -5.08527e+01 -1.04240e+01
       E -1.49334e+00  4.23683e+01  6.19436e+01
       E  8.58039e+01  5.09442e+01 -2.46280e+01
3
# CELL(abcABC): 1322.94304  1322.94304  1322.94304    90.00000    90.00000    90.00000  Step:        7500  Bead:       6 positions{angstrom}  cell{angstrom}
       E -2.61715e+01 -5.62156e+01 -2.78767e+01
       E -2.16862e+01  2.51139e+01  6.85499e+00
       E  6.71483e+01  7.23263e+01 -3.93885e+01
3
# CELL(abcABC): 1322.94304  1322.94304  1322.94304    90.00000    90.00000    90.00000  Step:        7600  Bead:       6 positions{angstrom}  cell{angstrom}
       E -2.59521e+01 -8.85471e+01 -2.12894e+01
       E -3.03803e+01 -6.56014e+01 -6.22763e+00
       E  9.46301e+01  3.13990e+01 -3.21195e+01
3
# CELL(abcABC): 1322.94304  1322.94304  1322.94304    90.00000    90.00000    90.00000  Step:        7700  Bead:       6 positions{angstrom}  cell{angstrom}
       E  9.12944e+00 -4.20251e+01 -2.75032e+01
       E -1.49022e+01 -4.27663e+01 -3.70826e+01
       E  3.48741e+01  9.02506e+00 -1.35136e+01
3
# CELL(abcABC): 1322.94304  1322.94304  1322.94304    90.00000    90.00000    90.00000  Step:        7800  Bead:       6 positions{angstrom}  cell{angstrom}
       E  2.52071e+01 -9.45925e+00 -4.72055e+01
       E  2.36776e+01 -3.61518e+01 -2.34799e+01
       E  4.44484e+01 -2.97880e+00 -6.38005e+01
3
# CELL(abcABC): 1322.94304  1322.94304  1322.94304    90.00000    90.00000    90.00000  Step:        7900  Bead:       6 positions{angstrom}  cell{angstrom}
       E  3.10104e+01 -2.34692e+01 -6.27458e+01
       E  5.36586e+01 -5.40215e+01 -2.70418e+01
       E  4.02916e+01  2.07563e+01 -5.99440e+01
3
# CELL(abcABC): 1322.94304  1322.94304  1322.94304    90.00000    90.00000    90.00000  Step:        8000  Bead:       6 positions{angstrom}  cell{angstrom}
       E  1.77905e+01  6.26198e+00 -5.46649e+00
       E  3.25345e+01 -2.63682e+01 -4.76645e+01
       E  5.86347e-01  3.97746e+01 -1.78074e+01
3
# CELL(abcABC): 1322.94304  1322.94304  1322.94304    90.00000    90.00000    90.00000  Step:        8100  Bead:       6 positions{angstrom}  cell{angstrom}
       E  9.05004e+00 -1.12451e+01 -5.04342e+00
       E  2.58378e+01 -6.62828e+00 -9.94691e+00
       E -8.40240e+00 -2.35104e+00  1.13080e+01
3
# CELL(abcABC): 1322.94304  1322.94304  1322.94304    90.00000    90.00000    90.00000  Step:        8200  Bead:       6 positions{angstrom}  cell{angstrom}
       E  2.47374e+01  1.77736e+01 -5.18223e+01
       E  2.45215e+01  1.95338e+01  1.22194e+01
       E  3.71798e+01 -3.55304e+01  3.87744e+01
3
# CELL(abcABC): 1322.94304  1322.94304  1322.94304    90.00000    90.00000    90.00000  Step:        8300  Bead:       6 positions{angstrom}  cell{angstrom}
       E  3.27697e+01 -7.54754e+00 -5.48499e+01
       E  1.20414e+01  4.18214e+00  5.39648e+01
       E  1.63062e+01 -2.20930e+01  2.47000e+01
3
# CELL(abcABC): 1322.94304  1322.94304  1322.94304    90.00000    90.00000    90.00000  Step:        8400  Bead:       6 positions{angstrom}  cell{angstrom}
       E  2.54636e+01  2.47927e+01 -4.08449e+01
       E -5.49275e+00 -5.84245e+00  1.52481e+01
       E  4.49344e+01  1.59140e+01  2.11420e+01
3
# CELL(abcABC): 1322.94304  1322.94304  1322.94304    90.00000    90.00000    90.00000  Step:        8500  Bead:       6 positions{angstrom}  cell{angstrom}
       E -3.15060e+01  6.27192e+00 -4.48825e+00
       E  5.36417e+01 -4.51362e+00  2.84116e-02
       E  4.48873e+01 -3.18304e+00  3.04310e+01
3
# CELL(abcABC): 1322.94304  1322.94304  1322.94304    90.00000    90.00000    90.00000  Step:        8600  Bead:       6 positions{angstrom}  cell{angstrom}
       E -5.01709e+01  4.05317e+01 -9.47521e+00
       E  4.18188e+01  4.23327e+01 -2.25399e+01
       E  4.87860e+01 -1.04256e+01  4.22291e+01
3
# CELL(abcABC): 1322.94304  1322.94304  1322.94304    90.00000    90.00000    90.00000  Step:        8700  Bead:       6 positions{angstrom}  cell{angstrom}
       E -4.27470e+00  3.72993e+01 -1.73385e+01
       E  6.87193e+01  6.16443e+00 -1.09407e+01
       E  6.27577e+01 -3.64620e+01  1.53289e+01
3
# CELL(abcABC): 1322.94304  1322.94304  1322.94304    90.00000    90.00000    90.00000  Step:        8800  Bead:       6 positions{angstrom}  cell{angstrom}
       E -1.33314e+01  4.76753e+01  1.07108e+01
       E  1.48961e+01  2.08773e+00  1.37290e+01
       E  3.41490e+01 -7.45517e+01  6.20424e+01
3
# CELL(abcABC): 1322.94304  1322.94304  1322.94304    90.00000    90.00000    90.00000  Step:        8900  Bead:       6 positions{angstrom}  cell{angstrom}
       E  1.73479e+00  2.75826e+01  2.57580e+01
       E -5.49922e+00 -5.94739e+01  3.49833e+01
       E  9.63694e+00 -4.79025e+01  3.57894e+01
3
# CELL(abcABC): 1322.94304  1322.94304  1322.94304    90.00000    90.00000    90.00000  Step:        9000  Bead:       6 positions{angstrom}  cell{angstrom}
       E -1.90451e+01  2.52201e+01  3.23679e+01
       E -3.16991e+01 -3.33153e+01  5.55801e+01
       E  2.38033e+01 -6.65985e+01 -2.23597e+01
3
# CELL(abcABC): 1322.94304  1322.94304  1322.94304    90.00000    90.00000    90.00000  Step:        9100  Bead:       6 positions{angstrom}  cell{angstrom}
       E  4.40525e-01  3.34488e+01  4.58307e+01
       E -4.76685e+01 -4.09218e+01  5.40575e+01
       E -8.61888e+00 -7.47227e+01 -2.07044e+01
3
# CELL(abcABC): 1322.94304  1322.94304  1322.94304    90.00000    90.00000    90.00000  Step:        9200  Bead:       6 positions{angstrom}  cell{angstrom}
       E  1.72395e+01  5.84506e+01  1.19877e+01
       E -1.59274e+01  3.04852e+00  1.41886e+01
       E  1.87948e+01 -2.91650e+01  5.73252e+00
3
# CELL(abcABC): 1322.94304  1322.94304  1322.94304    90.00000    90.00000    90.00000  Step:        9300  Bead:       6 positions{angstrom}  cell{angstrom}
       E  1.27662e+01  4.35583e+01 -3.94753e+01
       E  1.07093e+01 -3.96488e+01  1.41165e+01
       E  1.64176e+01 -2.17854e+01 -1.10135e+01
3
# CELL(abcABC): 1322.94304  1322.94304  1322.94304    90.00000    90.00000    90.00000  Step:        9400  Bead:       6 positions{angstrom}  cell{angstrom}
       E  1.67604e+01  4.27057e+01 -4.95501e+01
       E  8.61180e+00 -3.10060e+01  2.19664e+01
       E  3.23310e+01 -5.96858e+01  3.61608e+00
3
# CELL(abcABC): 1322.94304  1322.94304  1322.94304    90.00000    90.00000    90.00000  Step:        9500  Bead:       6 positions{angstrom}  cell{angstrom}
       E  1.07274e+01  2.13245e+01 -3.26298e+01
       E  2.27061e+01 -2.39478e+01 -4.98190e+00
       E -3.23490e+00 -5.19728e+01 -7.30367e+00
3
# CELL(abcABC): 1322.94304  1322.94304  1322.94304    90.00000    90.00000    90.00000  Step:        9600  Bead:       6 positions{angstrom}  cell{angstrom}
       E -4.47310e+01 -7.54049e-01 -3.66813e+01
       E  4.33031e+01 -5.79482e+01  4.28024e+01
       E -1.16737e+01 -8.81099e-01  4.07699e+00
3
# CELL(abcABC): 1322.94304  1322.94304  1322.94304    90.00000    90.00000    90.00000  Step:        9700  Bead:       6 positions{angstrom}  cell{angstrom}
       E -1.36006e+01 -1.03681e+01 -6.67705e+01
       E  3.74743e+01 -7.30970e+01  4.10365e+01
       E  1.80595e+01 -3.93053e+01  2.31817e+01
3
# CELL(abcABC): 1322.94304  1322.94304  1322.94304    90.00000    90.00000    90.00000  Step:        9800  Bead:       6 positions{angstrom}  cell{angstrom}
       E -1.97568e+01 -6.39040e+01 -6.19924e+01
       E  2.12052e+01 -8.99134e+01  4.40055e+00
       E -1.22393e+01 -2.98855e+01  3.75410e+01
3