3
# CELL(abcABC): 1322.94304  1322.94304  1322.94304    90.00000    90.00000    90.00000  Step:           0  Bead:      19 positions{angstrom}  cell{angstrom}
       E  0.00000e+00  0.00000e+00  0.00000e+00
       E  0.00000e+00  0.00000e+00  0.00000e+00
       E  0.00000e+00  0.00000e+00  0.00000e+00
3
# CELL(abcABC): 1322.94304  1322.94304  1322.94304    90.00000    90.00000    90.00000  Step:         100  Bead:      19 positions{angstrom}  cell{angstrom}
       E  5.10521e+00  7.80261e-01 -2.36900e+01
       E -2.86667e+01 -6.14408e+01 -2.60088e+01
       E  4.85415e+00  2.49461e+01 -2.67469e+01
3
# CELL(abcABC): 1322.94304  1322.94304  1322.94304    90.00000    90.00000    90.00000  Step:         200  Bead:      19 positions{angstrom}  cell{angstrom}
       E  2.34536e+01  2.19014e+00 -6.08944e+00
       E  2.51492e+01 -4.06041e+01 -1.97302e+01
       E  2.15126e+01  3.58566e+01 -1.64001e+01
3
# CELL(abcABC): 1322.94304  1322.94304  1322.94304    90.00000    90.00000    90.00000  Step:         300  Bead:      19 positions{angstrom}  cell{angstrom}
       E -2.89801e+00  2.48512e+01  1.41661e+01
       E  2.60374e+01 -1.25795e+01  1.16427e+01
       E -1.14187e+01  4.02694e+01 -3.51849e+01
3
# CELL(abcABC): 1322.94304  1322.94304  1322.94304    90.00000    90.00000    90.00000  Step:         400  Bead:      19 positions{angstrom}  cell{angstrom}
       E -1.72973e+01  2.05768e+01 -1.18426e+01
       E  4.76506e+01 -1.09414e+01 -5.72720e+00
       E -5.41871e+01  2.17831e+01 -9.58057e+00
3
# CELL(abcABC): 1322.94304  1322.94304  1322.94304    90.00000    90.00000    90.00000  Step:         500  Bead:      19 positions{angstrom}  cell{angstrom}
       E  4.51037e+00 -1.53077e+01 -1.92504e+01
       E  5.36064e+01 -3.71109e+00  3.86429e+00
       E -1.56963e+01  5.48318e-01  3.49848e+01
3
# CELL(abcABC): 1322.94304  1322.94304  1322.94304    90.00000    90.00000    90.00000  Step:         600  Bead:      19 positions{angstrom}  cell{angstrom}
       E  4.97713e+00  6.92628e+00 -2.76418e+01
       E  3.42397e+01 -2.25320e+00 -1.08658e+01
       E -3.57852e+00 -1.47607e+01  3.74474e+01
3
# CELL(abcABC): 1322.94304  1322.94304  1322.94304    90.00000    90.00000    90.00000  Step:         700  Bead:      19 positions{angstrom}  cell{angstrom}
       E  2.88489e+01  2.54748e+01 -2.13303e+01
       E  3.84962e+01 -3.79541e+00 -2.01849e+01
       E -8.79115e+00  2.65987e+00  4.40751e+01
3
# CELL(abcABC): 1322.94304  1322.94304  1322.94304    90.00000    90.00000    90.00000  Step:         800  Bead:      19 positions{angstrom}  cell{angstrom}
       E -1.59324e+01  6.52578e+00 -1.29296e+01
       E  4.44290e+01  1.24309e+01  4.82320e+00
       E -2.80580e+01 -1.64857e+01  9.27915e+01
3
# CELL(abcABC): 1322.94304  1322.94304  1322.94304    90.00000    90.00000    90.00000  Step:         900  Bead:      19 positions{angstrom}  cell{angstrom}
       E -3.48024e+01  4.90896e+01 -5.29068e+01
       E  7.41088e+00 -1.05988e+01 -2.81686e+01
       E -6.33759e+01 -1.96211e+01  9.15177e+01
3
# CELL(abcABC): 1322.94304  1322.94304  1322.94304    90.00000    90.00000    90.00000  Step:        1000  Bead:      19 positions{angstrom}  cell{angstrom}
       E  1.31090e+01  2.70019e+01 -3.97200e+01
       E  1.44113e-01 -3.47239e+00 -3.70702e+01
       E -5.35348e+01 -1.11181e+01  8.01267e+01
3
# CELL(abcABC): 1322.94304  1322.94304  1322.94304    90.00000    90.00000    90.00000  Step:        1100  Bead:      19 positions{angstrom}  cell{angstrom}
       E  9.70255e+00 -1.06061e+01 -6.72989e+01
       E  2.09457e+01  1.48475e+00 -3.82847e+01
       E -5.59803e+01  4.71987e+01  6.10001e+01
3
# CELL(abcABC): 1322.94304  1322.94304  1322.94304    90.00000    90.00000    90.00000  Step:        1200  Bead:      19 positions{angstrom}  cell{angstrom}
       E -1.14861e+01  3.92662e+01 -7.18104e+01
       E  1.95783e+01 -1.32603e+01 -2.81877e+01
       E -1.31080e+01  6.80345e+01  1.73643e+01
3
# CELL(abcABC): 1322.94304  1322.94304  1322.94304    90.00000    90.00000    90.00000  Step:        1300  Bead:      19 positions{angstrom}  cell{angstrom}
       E -1.77914e+01  4.45537e+01 -6.96580e+01
       E  4.39410e+01 -4.79625e+01 -4.37323e+01
       E  8.50224e+00  4.39834e+00  3.44256e+00
3
# CELL(abcABC): 1322.94304  1322.94304  1322.94304    90.00000    90.00000    90.00000  Step:        1400  Bead:      19 positions{angstrom}  cell{angstrom}
       E  4.34193e+00  2.88653e+01 -8.05181e+01
       E  5.13121e+00  4.59389e+00 -3.84267e+01
       E -6.33945e+00 -8.20268e+00  1.99565e+01
3
# CELL(abcABC): 1322.94304  1322.94304  1322.94304    90.00000    90.00000    90.00000  Step:        1500  Bead:      19 positions{angstrom}  cell{angstrom}
       E  9.09500e+00  4.80530e+01 -9.41308e+00
       E -2.48178e+01  2.07701e+01  8.74455e-01
       E -1.77860e+01  2.24905e+01  1.74279e+01
3
# CELL(abcABC): 1322.94304  1322.94304  1322.94304    90.00000    90.00000    90.00000  Step:        1600  Bead:      19 positions{angstrom}  cell{angstrom}
       E -2.27410e+01  2.21821e+01 -3.43259e+01
       E -3.39968e+00  1.04922e+01 -2.04593e+01
       E -4.87807e-01  2.79073e+01 -1.06045e+01
3
# CELL(abcABC): 1322.94304  1322.94304  1322.94304    90.00000    90.00000    90.00000  Step:        1700  Bead:      19 positions{angstrom}  cell{angstrom}
       E  2.52710e+00  6.71623e+01 -4.04261e+00
       E -3.46438e+01  4.12228e+01  1.28560e+01
       E -1.44508e+01  7.87184e+01  4.58148e+01
3
# CELL(abcABC): 1322.94304  1322.94304  1322.94304    90.00000    90.00000    90.00000  Step:        1800  Bead:      19 positions{angstrom}  cell{angstrom}
       E -7.66423e+00  3.89139e+01  4.31843e+01
       E -5.02189e+01  5.37149e+01  1.44649e+01
       E -5.07288e+01  7.95282e+01  3.98220e+01
3
# CELL(abcABC): 1322.94304  1322.94304  1322.94304    90.00000    90.00000    90.00000  Step:        1900  Bead:      19 positions{angstrom}  cell{angstrom}
       E  2.57211e+01  1.07262e+01  5.28149e+01
       E -6.49853e+01  2.99347e+01  2.33500e+01
       E -1.10828e+02  8.01633e+01  3.62311e+00
3
# CELL(abcABC): 1322.94304  1322.94304  1322.94304    90.00000    90.00000    90.00000  Step:        2000  Bead:      19 positions{angstrom}  cell{angstrom}
       E -2.03854e+01 -5.33651e+01  5.41814e+01
       E -7.60878e+01 -1.59778e+00  2.17497e+01
       E -9.97335e+01  6.85260e+01  9.00340e+00
3
# CELL(abcABC): 1322.94304  1322.94304  1322.94304    90.00000    90.00000    90.00000  Step:        2100  Bead:      19 positions{angstrom}  cell{angstrom}
       E -5.53116e+01 -2.63270e+01  4.44370e+01
       E -5.29664e+01 -1.44337e+01  3.03517e+01
       E -9.25034e+01  1.06442e+02  4.27349e+01
3
# CELL(abcABC): 1322.94304  1322.94304  1322.94304    90.00000    90.00000    90.00000  Step:        2200  Bead:      19 positions{angstrom}  cell{angstrom}
       E -1.33466e+01 -3.68128e+01  4.27769e+01
       E -2.42592e+01 -3.90621e+01 -7.51641e+00
       E -7.92717e+01  7.59263e+01  2.67149e+00
3
# CELL(abcABC): 1322.94304  1322.94304  1322.94304    90.00000    90.00000    90.00000  Step:        2300  Bead:      19 positions{angstrom}  cell{angstrom}
       E -4.74086e+01 -5.30713e+01  5.21525e+01
       E -1.66751e+01 -2.48118e+01  4.93724e+00
       E -2.51784e+01  1.62070e+01  1.76953e+01
3
# CELL(abcABC): 1322.94304  1322.94304  1322.94304    90.00000    90.00000    90.00000  Step:        2400  Bead:      19 positions{angstrom}  cell{angstrom}
       E -5.46964e+01 -4.76375e+01  2.46713e+01
       E -1.45407e+01 -5.27920e+00  1.54529e+00
       E -1.66880e+01  5.11893e+01  3.12801e+01
3
# CELL(abcABC): 1322.94304  1322.94304  1322.94304    90.00000    90.00000    90.00000  Step:        2500  Bead:      19 positions{angstrom}  cell{angstrom}
       E -4.94039e+01 -1.86742e+01  6.05088e+00
       E -2.42078e+01 -5.70120e+01 -3.49964e+01
       E  8.59742e+00 -3.74788e+00  3.33405e+01
3
# CELL(abcABC): 1322.94304  1322.94304  1322.94304    90.00000    90.00000    90.00000  Step:        2600  Bead:      19 positions{angstrom}  cell{angstrom}
       E -2.94958e+01 -2.20919e+01  3.57436e+01
       E -3.85662e+01 -5.41087e+01 -4.57109e+01
       E  2.80322e+00 -1.12755e+01  5.66958e+01
3
# CELL(abcABC): 1322.94304  1322.94304  1322.94304    90.00000    90.00000    90.00000  Step:        2700  Bead:      19 positions{angstrom}  cell{angstrom}
       E -4.03263e+01  6.13549e+00  4.93737e+01
       E -7.80743e+01 -4.75274e+01 -9.16562e+00
       E  1.90340e+01 -3.02394e+01  3.73273e+01
3
# CELL(abcABC): 1322.94304  1322.94304  1322.94304    90.00000    90.00000    90.00000  Step:        2800  Bead:      19 positions{angstrom}  cell{angstrom}
       E -5.05550e+01 -9.90604e+00  4.69068e+01
       E -8.45232e+01 -3.93428e+01 -2.94637e+01
       E  1.24847e+01 -2.07315e+01  1.85085e+01
3
# CELL(abcABC): 1322.94304  1322.94304  1322.94304    90.00000    90.00000    90.00000  Step:        2900  Bead:      19 positions{angstrom}  cell{angstrom}
       E -6.79028e+01 -7.79758e+00  3.12972e+01
       E -9.52067e+01 -7.23612e+01  9.81849e+00
       E  3.46684e+00 -1.16455e+00  7.72821e+00
3
# CELL(abcABC): 1322.94304  1322.94304  1322.94304    90.00000    90.00000    90.00000  Step:        3000  Bead:      19 positions{angstrom}  cell{angstrom}
       E -4.59458e+01 -2.74151e+01  4.92748e+01
       E -7.72392e+01 -5.88590e+01  3.24442e+01
       E  2.63012e+01  3.25461e+01  3.06380e+01
3
# CELL(abcABC): 1322.94304  1322.94304  1322.94304    90.00000    90.00000    90.00000  Step:        3100  Bead:      19 positions{angstrom}  cell{angstrom}
       E -8.33809e+01 -3.07518e+01  6.34410e+01
       E -8.84992e+01 -4.23108e+01  2.14870e+01
       E  6.15061e+01  3.17000e+01  3.75899e+01
3
# CELL(abcABC): 1322.94304  1322.94304  1322.94304    90.00000    90.00000    90.00000  Step:        3200  Bead:      19 positions{angstrom}  cell{angstrom}
       E -6.12085e+01  2.38301e+01  1.17403e+01
       E -1.07523e+02 -2.10310e+01  3.09892e+01
       E  6.16096e+01  5.16939e+01  2.82140e+01
3
# CELL(abcABC): 1322.94304  1322.94304  1322.94304    90.00000    90.00000    90.00000  Step:        3300  Bead:      19 positions{angstrom}  cell{angstrom}
       E -4.96196e+01  1.54248e+01  3.03845e+01
       E -1.07215e+02 -6.28448e+01  4.42810e+01
       E  6.06411e+01  8.00104e+01  2.30919e+01
3
# CELL(abcABC): 1322.94304  1322.94304  1322.94304    90.00000    90.00000    90.00000  Step:        3400  Bead:      19 positions{angstrom}  cell{angstrom}
       E -8.75264e+01 -3.96615e+00  7.80683e+01
       E -7.33678e+01 -3.31018e+01  3.53167e+01
       E  3.84435e+01  5.78377e+01  2.23296e+01
3
# CELL(abcABC): 1322.94304  1322.94304  1322.94304    90.00000    90.00000    90.00000  Step:        3500  Bead:      19 positions{angstrom}  cell{angstrom}
       E -1.13431e+02  1.25630e+01  5.60951e+01
       E -4.23851e+01 -2.59608e+01  3.40974e+01
       E  1.26954e+01  3.19867e+01  4.38251e+01
3
# CELL(abcABC): 1322.94304  1322.94304  1322.94304    90.00000    90.00000    90.00000  Step:        3600  Bead:      19 positions{angstrom}  cell{angstrom}
       E -9.07445e+01 -3.70266e+00  2.92726e+01
       E  3.18517e+00 -2.97519e+01  3.93209e+01
       E -2.50477e+00  4.75035e+01  3.92311e+01
3
# CELL(abcABC): 1322.94304  1322.94304  1322.94304    90.00000    90.00000    90.00000  Step:        3700  Bead:      19 positions{angstrom}  cell{angstrom}
       E -6.46972e+01  1.35314e+00 -4.81136e+01
       E -5.84664e+00 -1.86280e+01  1.19976e+01
       E -4.65310e+01  1.53677e+01 -2.03115e+01
3
# CELL(abcABC): 1322.94304  1322.94304  1322.94304    90.00000    90.00000    90.00000  Step:        3800  Bead:      19 positions{angstrom}  cell{angstrom}
       E -7.99359e+01 -2.23577e+01 -3.41497e+01
       E -1.38093e+01 -6.32683e+01  2.61344e+01
       E -4.72205e+01  4.35026e+01 -2.02560e+01
3
# CELL(abcABC): 1322.94304  1322.94304  1322.94304    90.00000    90.00000    90.00000  Step:        3900  Bead:      19 positions{angstrom}  cell{angstrom}
       E -1.09120e+02 -4.13649e+00 -3.63917e+01
       E -4.07263e+01 -5.39150e+01  7.22482e+00
       E -4.47929e+01  1.77193e+00  1.95915e+00
3
# CELL(abcABC): 1322.94304  1322.94304  1322.94304    90.00000    90.00000    90.00000  Step:        4000  Bead:      19 positions{angstrom}  cell{angstrom}
       E -1.35214e+02  2.36586e+01 -5.95018e+01
       E -4.52629e+01 -2.91650e+01  3.53512e+01
       E -1.21222e+01  2.43958e+01  3.42101e+01
3
# CELL(abcABC): 1322.94304  1322.94304  1322.94304    90.00000    90.00000    90.00000  Step:        4100  Bead:      19 positions{angstrom}  cell{angstrom}
       E -9.82157e+01  3.32212e+01 -7.52141e+01
       E -3.79406e+01  1.02173e+01 -1.65885e+01
       E  1.24454e+00 -1.41227e+01  3.10448e+01
3
# CELL(abcABC): 1322.94304  1322.94304  1322.94304    90.00000    90.00000    90.00000  Step:        4200  Bead:      19 positions{angstrom}  cell{angstrom}
       E -1.02421e+02 -2.56306e+00 -1.22849e+02
       E -5.24551e+01  2.20668e+01  2.19216e+01
       E  9.04286e+00 -1.17081e+01  5.02535e+01
3
# CELL(abcABC): 1322.94304  1322.94304  1322.94304    90.00000    90.00000    90.00000  Step:        4300  Bead:      19 positions{angstrom}  cell{angstrom}
       E -3.66747e+01  2.38073e+01 -4.35289e+01
       E -4.40702e+01  2.66087e+01  1.27986e+01
       E  2.78329e+01 -5.63859e+00  3.22388e+01
3
# CELL(abcABC): 1322.94304  1322.94304  1322.94304    90.00000    90.00000    90.00000  Step:        4400  Bead:      19 positions{angstrom}  cell{angstrom}
       E -5.39908e+01  2.52563e+01 -4.38218e+01
       E -1.52192e+01  5.86947e+01 -3.65344e+01
       E  4.90270e+01 -3.41058e+01  2.55016e+01
3
# CELL(abcABC): 1322.94304  1322.94304  1322.94304    90.00000    90.00000    90.00000  Step:        4500  Bead:      19 positions{angstrom}  cell{angstrom}
       E -5.75095e+01  2.14277e+01 -1.00331e+02
       E -2.30407e+01  7.51256e+01 -1.00725e+01
       E  7.78596e+00 -3.09328e+01  2.85363e+01
3
# CELL(abcABC): 1322.94304  1322.94304  1322.94304    90.00000    90.00000    90.00000  Step:        4600  Bead:      19 positions{angstrom}  cell{angstrom}
       E -2.97047e+01  3.31398e+01 -9.05250e+01
       E -4.60561e+01  1.16975e+02  1.01834e+01
       E  1.20232e+00  1.32719e+01 -1.28827e+00
3
# CELL(abcABC): 1322.94304  1322.94304  1322.94304    90.00000    90.00000    90.00000  Step:        4700  Bead:      19 positions{angstrom}  cell{angstrom}
       E -2.87158e+01  2.66622e+01 -2.89604e+01
       E -4.51523e+01  6.33695e+01 -2.37234e+01
       E  8.56930e+00 -8.61877e-01 -1.51544e+01
3
# CELL(abcABC): 1322.94304  1322.94304  1322.94304    90.00000    90.00000    90.00000  Step:        4800  Bead:      19 positions{angstrom}  cell{angstrom}
       E -3.08260e+01  1.27941e+01 -4.63865e+01
       E -5.04607e+01  2.36693e+01  2.78277e+00
       E  3.60836e+01 -2.38013e+01  4.10610e+01
3
# CELL(abcABC): 1322.94304  1322.94304  1322.94304    90.00000    90.00000    90.00000  Step:        4900  Bead:      19 positions{angstrom}  cell{angstrom}
       E  2.76667e+01  8.76808e+00  3.38826e+01
       E -4.40923e+01  8.77881e+00 -2.23604e+01
       E  2.18288e+01 -2.79777e+01  8.61836e+00
3
# CELL(abcABC): 1322.94304  1322.94304  1322.94304    90.00000    90.00000    90.00000  Step:        5000  Bead:      19 positions{angstrom}  cell{angstrom}
       E  3.81964e+01  1.83763e+01  3.70417e+01
       E -4.41242e+01 -4.99888e-01 -2.38517e+01
       E  2.85068e+01  9.46674e-01 -1.87653e+01
3
# CELL(abcABC): 1322.94304  1322.94304  1322.94304    90.00000    90.00000    90.00000  Step:        5100  Bead:      19 positions{angstrom}  cell{angstrom}
       E  2.18318e+01  2.17867e+01  2.61289e+01
       E -5.77887e+01  2.20712e+01 -2.65990e+01
       E  2.64471e+00 -9.36522e+00 -4.55454e+01
3
# CELL(abcABC): 1322.94304  1322.94304  1322.94304    90.00000    90.00000    90.00000  Step:        5200  Bead:      19 positions{angstrom}  cell{angstrom}
       E -2.46011e+01  1.76482e+01  1.07024e+01
       E -3.33462e+01 -1.19978e-01 -4.06141e+01
       E  1.34097e+01  1.52757e+01 -2.54460e+00
3
# CELL(abcABC): 1322.94304  1322.94304  1322.94304    90.00000    90.00000    90.00000  Step:        5300  Bead:      19 positions{angstrom}  cell{angstrom}
       E -7.57779e+00 -1.67979e+00  4.18445e+00
       E -1.42164e+01  5.36044e+01 -5.13952e+00
       E -4.65615e+01  3.95440e+01  1.62997e+01
3
# CELL(abcABC): 1322.94304  1322.94304  1322.94304    90.00000    90.00000    90.00000  Step:        5400  Bead:      19 positions{angstrom}  cell{angstrom}
       E  1.26145e+01 -1.69264e+01  2.89641e+00
       E  1.58646e+01  6.80122e+00  1.04313e+01
       E -3.11163e+01  3.96838e+01  5.62468e+01
3
# CELL(abcABC): 1322.94304  1322.94304  1322.94304    90.00000    90.00000    90.00000  Step:        5500  Bead:      19 positions{angstrom}  cell{angstrom}
       E  3.34454e+01 -5.21778e+00 -1.74205e+01
       E -4.43045e+01  1.11614e+01  7.37812e+00
       E -5.81645e+01 -3.52781e+00  5.61814e+01
3
# CELL(abcABC): 1322.94304  1322.94304  1322.94304    90.00000    90.00000    90.00000  Step:        5600  Bead:      19 positions{angstrom}  cell{angstrom}
       E  1.21630e+01 -1.20277e+00 -2.13522e+01
       E -5.52343e+01 -6.20344e+00  3.05807e+00
       E -4.00165e+01  9.26760e+00  4.12161e+01
3
# CELL(abcABC): 1322.94304  1322.94304  1322.94304    90.00000    90.00000    90.00000  Step:        5700  Bead:      19 positions{angstrom}  cell{angstrom}
       E  2.74656e+01 -3.24851e+01 -5.96110e+01
       E -5.78097e+01  7.23979e+00 -1.96010e+01
       E -7.91987e+01 -1.33896e+01 -1.04821e+01
3
# CELL(abcABC): 1322.94304  1322.94304  1322.94304    90.00000    90.00000    90.00000  Step:        5800  Bead:      19 positions{angstrom}  cell{angstrom}
       E  1.76681e+01  6.84505e+00 -2.70993e+01
       E -2.90239e+01  3.67839e+01 -1.55088e+01
       E -2.67497e+01  1.80337e+01  2.33008e+00
3
# CELL(abcABC): 1322.94304  1322.94304  1322.94304    90.00000    90.00000    90.00000  Step:        5900  Bead:      19 positions{angstrom}  cell{angstrom}
       E  1.39484e+01  2.42037e+01 -1.76280e+01
       E -1.86789e+01  1.98541e+01  2.72310e+01
       E -1.10574e+00 -1.81500e+01 -3.08344e+01
3
# CELL(abcABC): 1322.94304  1322.94304  1322.94304    90.00000    90.00000    90.00000  Step:        6000  Bead:      19 positions{angstrom}  cell{angstrom}
       E  1.40892e+01 -2.99134e+01  8.10912e+00
       E  7.80350e+00  1.80809e+00  1.22241e+01
       E -1.37602e+00 -2.51688e+01  4.36625e+00
3
# CELL(abcABC): 1322.94304  1322.94304  1322.94304    90.00000    90.00000    90.00000  Step:        6100  Bead:      19 positions{angstrom}  cell{angstrom}
       E -2.49032e+01 -3.98514e+01 -2.93629e+01
       E  4.63536e+01  1.11440e+01  1.54905e+01
       E  2.69929e+01 -1.17634e+01 -2.75304e+01
3
# CELL(abcABC): 1322.94304  1322.94304  1322.94304    90.00000    90.00000    90.00000  Step:        6200  Bead:      19 positions{angstrom}  cell{angstrom}
       E  4.91398e+00 -2.68870e+01 -9.48766e+01
       E  9.67327e+01  3.17391e+01  1.45049e+01
       E  9.23097e+00 -2.75648e+01  1.00103e+00
3
# CELL(abcABC): 1322.94304  1322.94304  1322.94304    90.00000    90.00000    90.00000  Step:        6300  Bead:      19 positions{angstrom}  cell{angstrom}
       E  1.43754e+01 -3.84591e+01 -1.06715e+02
       E  1.04501e+02  7.07825e+00 -2.02642e+01
       E  1.27172e+01 -4.20584e+01 -3.15548e+00
3
# CELL(abcABC): 1322.94304  1322.94304  1322.94304    90.00000    90.00000    90.00000  Step:        6400  Bead:      19 positions{angstrom}  cell{angstrom}
       E  5.13627e+01 -4.40412e+01 -1.24160e+02
       E  3.96981e+01 -1.41277e+01 -4.95533e+01
       E  2.73045e+01 -1.42897e+01 -1.87014e+01
3
# CELL(abcABC): 1322.94304  1322.94304  1322.94304    90.00000    90.00000    90.00000  Step:        6500  Bead:      19 positions{angstrom}  cell{angstrom}
       E  3.98911e+01 -5.53220e+01 -1.10867e+02
       E  1.88370e+01  2.45039e+01 -2.61492e+01
       E  4.60588e+01 -2.26247e+01 -9.70881e+00
3
# CELL(abcABC): 1322.94304  1322.94304  1322.94304    90.00000    90.00000    90.00000  Step:        6600  Bead:      19 positions{angstrom}  cell{angstrom}
       E  1.71154e+01 -8.04405e+01 -6.95698e+01
       E  2.42476e+01 -4.31691e+00 -4.39005e+01
       E  3.14126e+01 -1.98662e+01  3.14042e+00
3
# CELL(abcABC): 1322.94304  1322.94304  1322.94304    90.00000    90.00000    90.00000  Step:        6700  Bead:      19 positions{angstrom}  cell{angstrom}
       E -2.78868e+01 -1.19015e+02 -5.66004e+01
       E  3.01047e+01  3.06238e+00 -3.76603e+00
       E  2.79009e+01 -7.91867e+00  4.06669e+01
3
# CELL(abcABC): 1322.94304  1322.94304  1322.94304    90.00000    90.00000    90.00000  Step:        6800  Bead:      19 positions{angstrom}  cell{angstrom}
       E  3.16632e-01 -9.73464e+01 -7.35356e+01
       E  1.53424e+01 -4.23515e+01 -4.47163e+01
       E  5.63149e+00 -2.98846e+01 -2.24932e+01
3
# CELL(abcABC): 1322.94304  1322.94304  1322.94304    90.00000    90.00000    90.00000  Step:        6900  Bead:      19 positions{angstrom}  cell{angstrom}
       E  1.82256e+01 -7.96481e+01 -4.70884e+01
       E  2.77558e+01 -3.89820e+01 -3.40692e+01
       E -2.93209e+01 -8.93246e+00 -2.07682e+01
3
# CELL(abcABC): 1322.94304  1322.94304  1322.94304    90.00000    90.00000    90.00000  Step:        7000  Bead:      19 positions{angstrom}  cell{angstrom}
       E  3.84858e+01 -5.27884e+01  7.57054e-01
       E  1.48477e+01 -5.76870e+00 -4.44569e+01
       E -1.61237e+00  8.93545e+00 -3.14072e+01
3
# CELL(abcABC): 1322.94304  1322.94304  1322.94304    90.00000    90.00000    90.00000  Step:        7100  Bead:      19 positions{angstrom}  cell{angstrom}
       E  3.01812e+01 -3.34263e+01  5.25031e+00
       E -4.08812e+00 -1.14734e+00  2.87684e+00
       E  4.07656e+01  1.64629e+01 -4.37259e+01
3
# CELL(abcABC): 1322.94304  1322.94304  1322.94304    90.00000    90.00000    90.00000  Step:        7200  Bead:      19 positions{angstrom}  cell{angstrom}
       E  4.57504e+01 -3.75688e+01 -3.57988e+01
       E -4.25285e+01  3.17196e+01  2.83604e+01
       E  5.50688e+01  5.40473e+01 -2.01627e+01
3
# CELL(abcABC): 1322.94304  1322.94304  1322.94304    90.00000    90.00000    90.00000  Step:        7300  Bead:      19 positions{angstrom}  cell{angstrom}
       E  4.74492e+01 -2.84263e+01 -4.08184e+01
       E -3.20174e+01  4.23174e+01  2.66500e+01
       E  5.04104e+01  6.30960e+01 -1.62745e+01
3
# CELL(abcABC): 1322.94304  1322.94304  1322.94304    90.00000    90.00000    90.00000  Step:        7400  Bead:      19 positions{angstrom}  cell{angstrom}
       E -1.58439e+01 -4.39102e+01 -2.99962e+01
       E -3.44241e+01  3.50228e+00 -9.10763e+00
       E  6.03879e+01  6.56320e+01 -1.30019e+01
3
# CELL(abcABC): 1322.94304  1322.94304  1322.94304    90.00000    90.00000    90.00000  Step:        7500  Bead:      19 positions{angstrom}  cell{angstrom}
       E  1.07570e+01 -6.76311e+01 -7.27438e+01
       E -5.49896e+01 -1.54928e+01  1.41690e+01
       E  9.97150e+01  4.22220e+01 -7.88737e+00
3
# CELL(abcABC): 1322.94304  1322.94304  1322.94304    90.00000    90.00000    90.00000  Step:        7600  Bead:      19 positions{angstrom}  cell{angstrom}
       E -1.51733e+01 -7.39412e+01 -5.23828e+01
       E -2.79895e+01 -6.47227e+01 -1.03867e+01
       E  2.34717e+01  2.63091e+01 -2.16743e+01
3
# CELL(abcABC): 1322.94304  1322.94304  1322.94304    90.00000    90.00000    90.00000  Step:        7700  Bead:      19 positions{angstrom}  cell{angstrom}
       E  1.01950e+01 -7.42640e+01 -3.36563e+01
       E -2.31494e+01 -4.47210e+01 -1.82165e+01
       E  6.45749e+01 -1.04538e+01 -3.43153e+01
3
# CELL(abcABC): 1322.94304  1322.94304  1322.94304    90.00000    90.00000    90.00000  Step:        7800  Bead:      19 positions{angstrom}  cell{angstrom}
       E  4.39569e-01 -7.32534e+01 -7.18539e+01
       E -4.12800e+00 -3.76988e+01 -4.19770e+00
       E  3.37633e+01 -1.33893e+01 -3.09268e+01
3
# CELL(abcABC): 1322.94304  1322.94304  1322.94304    90.00000    90.00000    90.00000  Step:        7900  Bead:      19 positions{angstrom}  cell{angstrom}
       E  9.89362e+00 -5.03354e+01 -1.58831e+01
       E  2.18519e+00 -1.60582e+01 -4.76147e+01
       E -8.64790e+00 -1.04200e+01 -5.97120e+01
3
# CELL(abcABC): 1322.94304  1322.94304  1322.94304    90.00000    90.00000    90.00000  Step:        8000  Bead:      19 positions{angstrom}  cell{angstrom}
       E  3.08946e+00  8.52855e+00 -1.49718e+01
       E -2.50784e+01 -5.81292e+00 -5.94697e+00
       E  4.18910e+01 -1.52809e+01 -6.31310e+01
3
# CELL(abcABC): 1322.94304  1322.94304  1322.94304    90.00000    90.00000    90.00000  Step:        8100  Bead:      19 positions{angstrom}  cell{angstrom}
       E -7.57128e+00  1.42135e+01 -3.28526e+01
       E -1.80014e+01  6.05429e+00 -6.46913e+00
       E  2.16108e+01 -1.09939e+01 -9.41871e+00
3
# CELL(abcABC): 1322.94304  1322.94304  1322.94304    90.00000    90.00000    90.00000  Step:        8200  Bead:      19 positions{angstrom}  cell{angstrom}
       E -7.83609e-01  2.34475e+01 -4.42279e+01
       E -3.31302e+01 -3.61721e+01 -1.93235e+01
       E  8.26406e+00 -3.91965e+01  5.32903e+01
3
# CELL(abcABC): 1322.94304  1322.94304  1322.94304    90.00000    90.00000    90.00000  Step:        8300  Bead:      19 positions{angstrom}  cell{angstrom}
       E  1.30196e+01  2.94449e+01 -7.31915e+00
       E -2.83429e+01  3.20146e+00 -1.83811e+01
       E  2.24473e+00 -4.75775e+01  5.16156e+01
3
# CELL(abcABC): 1322.94304  1322.94304  1322.94304    90.00000    90.00000    90.00000  Step:        8400  Bead:      19 positions{angstrom}  cell{angstrom}
       E -2.49820e+01  9.31721e+00 -1.13057e+01
       E  1.69243e+01  1.63157e+01 -7.49609e+00
       E -2.98352e-01 -5.89709e+01  4.75470e+01
3
# CELL(abcABC): 1322.94304  1322.94304  1322.94304    90.00000    90.00000    90.00000  Step:        8500  Bead:      19 positions{angstrom}  cell{angstrom}
       E -1.05595e+01 -2.99073e+01 -3.53856e+01
       E  4.00368e+01  2.05399e+01 -3.43999e+01
       E  1.39082e+01 -2.34809e+01  5.34059e+01
3
# CELL(abcABC): 1322.94304  1322.94304  1322.94304    90.00000    90.00000    90.00000  Step:        8600  Bead:      19 positions{angstrom}  cell{angstrom}
       E  5.88221e+00 -2.07027e+01 -1.30052e+01
       E  2.24371e+01 -1.08692e+00 -2.67977e+01
       E  3.14369e+01 -2.24275e+01  4.25270e+01
3
# CELL(abcABC): 1322.94304  1322.94304  1322.94304    90.00000    90.00000    90.00000  Step:        8700  Bead:      19 positions{angstrom}  cell{angstrom}
       E -1.51283e+01 -1.55770e+00  1.69392e+01
       E  1.85637e+01 -2.00932e+00 -7.57101e+00
       E  5.13957e+01 -2.76162e+01  5.12727e+01
3
# CELL(abcABC): 1322.94304  1322.94304  1322.94304    90.00000    90.00000    90.00000  Step:        8800  Bead:      19 positions{angstrom}  cell{angstrom}
       E -4.00680e-01  2.57300e+01 -1.86644e+01
       E  1.71376e+00  4.27416e+00 -1.34547e+01
       E  5.36174e+01 -5.46034e+01  2.85653e+01
3
# CELL(abcABC): 1322.94304  1322.94304  1322.94304    90.00000    90.00000    90.00000  Step:        8900  Bead:      19 positions{angstrom}  cell{angstrom}
       E -5.24077e+01  4.87931e+01  3.21835e+01
       E -1.44140e+01  7.39185e+00  1.12029e+01
       E  5.91570e+01 -6.49560e+01  4.27117e+00
3
# CELL(abcABC): 1322.94304  1322.94304  1322.94304    90.00000    90.00000    90.00000  Step:        9000  Bead:      19 positions{angstrom}  cell{angstrom}
       E -5.26465e+01  3.72726e+01  4.82203e+01
       E -2.13937e+00  1.68204e+01  6.88194e+01
       E  4.12161e+01 -5.13308e+01  2.98855e+01
3
# CELL(abcABC): 1322.94304  1322.94304  1322.94304    90.00000    90.00000    90.00000  Step:        9100  Bead:      19 positions{angstrom}  cell{angstrom}
       E -4.42556e-01  2.79004e+01  8.69588e+00
       E  2.75920e+01 -3.43804e+01  8.29291e+01
       E  4.35935e+01  1.42013e+01  1.39050e+01
3
# CELL(abcABC): 1322.94304  1322.94304  1322.94304    90.00000    90.00000    90.00000  Step:        9200  Bead:      19 positions{angstrom}  cell{angstrom}
       E  9.53075e+00  2.68590e+01  1.66376e+01
       E -1.52656e+01 -8.56376e+00  3.90416e+01
       E  1.92900e+01 -5.12949e+01 -1.24980e+01
3
# CELL(abcABC): 1322.94304  1322.94304  1322.94304    90.00000    90.00000    90.00000  Step:        9300  Bead:      19 positions{angstrom}  cell{angstrom}
       E  6.73394e-01  1.11600e+01 -1.36054e+01
       E -3.87922e+01  2.30899e+01  3.04605e+01
       E -2.03543e+01 -5.13099e+01 -7.38664e+00
3
# CELL(abcABC): 1322.94304  1322.94304  1322.94304    90.00000    90.00000    90.00000  Step:        9400  Bead:      19 positions{angstrom}  cell{angstrom}
       E -2.89467e+01  4.60765e+01 -5.75028e+01
       E -4.49062e+01 -3.48850e+01  3.11340e+01
       E  1.13885e+01 -5.07522e+01  7.15548e+00
3
# CELL(abcABC): 1322.94304  1322.94304  1322.94304    90.00000    90.00000    90.00000  Step:        9500  Bead:      19 positions{angstrom}  cell{angstrom}
       E  2.22516e+01  4.69254e+01 -5.20616e+01
       E -4.29918e+00 -4.35893e+01  2.21263e+01
       E  1.04828e+01 -1.36484e+01  3.33502e+01
3
# CELL(abcABC): 1322.94304  1322.94304  1322.94304    90.00000    90.00000    90.00000  Step:        9600  Bead:      19 positions{angstrom}  cell{angstrom}
       E  7.45869e+00  1.68235e+01 -6.09337e+01
       E  2.92973e+01 -6.11824e+01 -7.48949e+00
       E -9.00109e+00 -2.07795e+01  1.78517e+01
3
# CELL(abcABC): 1322.94304  1322.94304  1322.94304    90.00000    90.00000    90.00000  Step:        9700  Bead:      19 positions{angstrom}  cell{angstrom}
       E  5.21880e+00 -2.33173e+01 -4.93401e+01
       E  1.09288e+01 -7.89134e+01  1.87283e+01
       E -6.37403e+00  1.34614e+01  1.47922e+01
3
# CELL(abcABC): 1322.94304  1322.94304  1322.94304    90.00000    90.00000    90.00000  Step:        9800  Bead:      19 positions{angstrom}  cell{angstrom}
       E -1.66171e+01 -5.75788e+01 -3.23065e+01
       E  1.56370e+00 -8.76281e+01  9.38194e+00
       E  3.90785e+00 -1.63792e+01  4.31961e+01
3