3
# CELL(abcABC): 1322.94304  1322.94304  1322.94304    90.00000    90.00000    90.00000  Step:           0  Bead:       1 positions{angstrom}  cell{angstrom}
       E  0.00000e+00  0.00000e+00  0.00000e+00
       E  0.00000e+00  0.00000e+00  0.00000e+00
       E  0.00000e+00  0.00000e+00  0.00000e+00
3
# CELL(abcABC): 1322.94304  1322.94304  1322.94304    90.00000    90.00000    90.00000  Step:         100  Bead:       1 positions{angstrom}  cell{angstrom}
       E -3.60328e+01 -4.07940e+01  4.12829e+00
       E -6.41496e+00 -1.61565e+01 -4.54675e-01
       E  1.65124e+01  4.30941e+00  1.65801e+01
3
# CELL(abcABC): 1322.94304  1322.94304  1322.94304    90.00000    90.00000    90.00000  Step:         200  Bead:       1 positions{angstrom}  cell{angstrom}
       E -2.46939e+01 -2.41007e+01  2.49803e+01
       E  2.56215e+01  1.43675e+01  6.53830e+00
       E -1.11055e+01  3.07968e+01  2.94599e+01
3
# CELL(abcABC): 1322.94304  1322.94304  1322.94304    90.00000    90.00000    90.00000  Step:         300  Bead:       1 positions{angstrom}  cell{angstrom}
       E  3.14348e+01  7.18511e+00 -4.95604e+01
       E  2.76465e+01 -1.12911e+01  1.32154e+01
       E -3.31061e+00  3.90830e+01  2.19626e+00
3
# CELL(abcABC): 1322.94304  1322.94304  1322.94304    90.00000    90.00000    90.00000  Step:         400  Bead:       1 positions{angstrom}  cell{angstrom}
       E  2.59640e+01  1.50468e+01 -7.82819e+00
       E  3.29665e+01 -6.15032e+00  1.88610e+01
       E -1.73250e+01  4.05639e+01  1.18376e+01
3
# CELL(abcABC): 1322.94304  1322.94304  1322.94304    90.00000    90.00000    90.00000  Step:         500  Bead:       1 positions{angstrom}  cell{angstrom}
       E  2.42842e+01 -1.22075e-01 -1.32874e+01
       E  3.31862e+01  3.38019e+01  2.96012e+01
       E -1.69411e+01  2.60655e+01  1.58465e+01
3
# CELL(abcABC): 1322.94304  1322.94304  1322.94304    90.00000    90.00000    90.00000  Step:         600  Bead:       1 positions{angstrom}  cell{angstrom}
       E -2.10375e+00 -8.35300e-01 -2.52308e+01
       E -2.56701e+01  2.47613e+00  3.00135e+01
       E -2.29786e+01  1.72255e+01  3.54088e+01
3
# CELL(abcABC): 1322.94304  1322.94304  1322.94304    90.00000    90.00000    90.00000  Step:         700  Bead:       1 positions{angstrom}  cell{angstrom}
       E -4.85442e+00  4.03897e+00 -2.11191e+01
       E -3.64926e+01 -3.03421e+01  3.34144e+01
       E  2.97516e+00  1.80814e+01  4.60282e+01
3
# CELL(abcABC): 1322.94304  1322.94304  1322.94304    90.00000    90.00000    90.00000  Step:         800  Bead:       1 positions{angstrom}  cell{angstrom}
       E  3.43451e+01  2.09941e+01 -6.26895e+00
       E  8.10105e+00  2.04165e-01  2.39248e+01
       E -4.53497e+01  4.90008e+01  5.77118e+01
3
# CELL(abcABC): 1322.94304  1322.94304  1322.94304    90.00000    90.00000    90.00000  Step:         900  Bead:       1 positions{angstrom}  cell{angstrom}
       E  2.26644e+01  4.42574e+00 -1.62156e+01
       E  4.66699e+01  4.09338e+00  2.02722e+01
       E -5.15227e+01  3.56494e+01  8.46396e+01
3
# CELL(abcABC): 1322.94304  1322.94304  1322.94304    90.00000    90.00000    90.00000  Step:        1000  Bead:       1 positions{angstrom}  cell{angstrom}
       E  1.09246e+01 -2.83672e+01 -3.05269e+01
       E -1.29455e+00  1.41591e+01 -3.69276e+01
       E -2.91475e+01  1.64620e+01  9.23856e+01
3
# CELL(abcABC): 1322.94304  1322.94304  1322.94304    90.00000    90.00000    90.00000  Step:        1100  Bead:       1 positions{angstrom}  cell{angstrom}
       E  1.83466e+01  3.77686e+01 -4.29138e+01
       E  3.92911e+01  8.46175e+00 -3.99799e+01
       E -4.13794e+01  1.61854e+01  9.02340e+01
3
# CELL(abcABC): 1322.94304  1322.94304  1322.94304    90.00000    90.00000    90.00000  Step:        1200  Bead:       1 positions{angstrom}  cell{angstrom}
       E  8.50976e+00  3.21884e+01 -5.37459e+01
       E  1.80260e+01  4.52413e+00 -5.63738e+01
       E  1.01198e+01  2.53086e+01  3.28524e+01
3
# CELL(abcABC): 1322.94304  1322.94304  1322.94304    90.00000    90.00000    90.00000  Step:        1300  Bead:       1 positions{angstrom}  cell{angstrom}
       E  1.23768e-02  3.32610e+01 -6.14369e+01
       E  8.22311e+00 -6.61361e+01 -3.67834e+01
       E -6.74547e+00  2.30665e+01  2.43684e+01
3
# CELL(abcABC): 1322.94304  1322.94304  1322.94304    90.00000    90.00000    90.00000  Step:        1400  Bead:       1 positions{angstrom}  cell{angstrom}
       E -3.21440e+01  4.71445e+00 -5.31139e+01
       E -1.15973e+01 -1.82889e+01 -4.41003e+01
       E -4.01177e+01  4.73125e+01  3.81104e+01
3
# CELL(abcABC): 1322.94304  1322.94304  1322.94304    90.00000    90.00000    90.00000  Step:        1500  Bead:       1 positions{angstrom}  cell{angstrom}
       E -5.25861e+01  4.17202e+01 -7.97270e+01
       E -3.81205e+01 -5.34835e+01 -4.10904e+01
       E -4.36006e+00  4.07851e+01  4.58465e+01
3
# CELL(abcABC): 1322.94304  1322.94304  1322.94304    90.00000    90.00000    90.00000  Step:        1600  Bead:       1 positions{angstrom}  cell{angstrom}
       E -5.39376e+01  4.87162e+01 -4.90990e+01
       E -1.54566e+01 -3.92886e+01 -1.39972e+01
       E -9.38513e+00  6.39065e+01  3.41036e+01
3
# CELL(abcABC): 1322.94304  1322.94304  1322.94304    90.00000    90.00000    90.00000  Step:        1700  Bead:       1 positions{angstrom}  cell{angstrom}
       E -3.96555e+01  2.41681e+01 -2.25675e+01
       E -1.92112e+01 -9.58297e+00  7.47663e+00
       E -2.19595e+01  7.13987e+01  4.73131e+00
3
# CELL(abcABC): 1322.94304  1322.94304  1322.94304    90.00000    90.00000    90.00000  Step:        1800  Bead:       1 positions{angstrom}  cell{angstrom}
       E -3.21687e+01  1.96346e+01  1.38261e+01
       E -5.59434e+01 -2.31642e+01  1.29866e+01
       E -3.99168e+01  3.31373e+01  2.65685e+01
3
# CELL(abcABC): 1322.94304  1322.94304  1322.94304    90.00000    90.00000    90.00000  Step:        1900  Bead:       1 positions{angstrom}  cell{angstrom}
       E -3.80478e+01  3.37615e+01  1.21568e+01
       E -5.19024e+01 -6.35563e+00 -2.96783e+01
       E -6.33271e+01  3.20401e+01  2.18879e+01
3
# CELL(abcABC): 1322.94304  1322.94304  1322.94304    90.00000    90.00000    90.00000  Step:        2000  Bead:       1 positions{angstrom}  cell{angstrom}
       E -4.34709e+01 -2.05370e+00  3.75993e+01
       E  1.02397e+01 -2.76325e+01  2.71383e+01
       E -4.90848e+01  4.23034e+01  6.46654e+00
3
# CELL(abcABC): 1322.94304  1322.94304  1322.94304    90.00000    90.00000    90.00000  Step:        2100  Bead:       1 positions{angstrom}  cell{angstrom}
       E -5.28701e+00 -5.29455e+01  2.92308e+01
       E -4.86146e+01 -1.22135e+01 -4.95091e-01
       E -6.84927e+01  6.18741e+01 -5.96166e+00
3
# CELL(abcABC): 1322.94304  1322.94304  1322.94304    90.00000    90.00000    90.00000  Step:        2200  Bead:       1 positions{angstrom}  cell{angstrom}
       E  2.24969e+01 -7.63076e+01  4.80320e+00
       E -6.10731e+01 -2.19740e+01  4.43856e+00
       E -9.17869e+01  3.48278e+01  2.43502e+01
3
# CELL(abcABC): 1322.94304  1322.94304  1322.94304    90.00000    90.00000    90.00000  Step:        2300  Bead:       1 positions{angstrom}  cell{angstrom}
       E  1.20544e+01 -7.49009e+01 -1.72639e+01
       E -3.15219e+01 -2.19005e+01  3.23179e-01
       E -2.59631e+01  8.22120e+01  2.97686e+01
3
# CELL(abcABC): 1322.94304  1322.94304  1322.94304    90.00000    90.00000    90.00000  Step:        2400  Bead:       1 positions{angstrom}  cell{angstrom}
       E  1.08496e+01 -6.01975e+01  4.41808e+01
       E -6.54765e-01 -4.81510e+01 -2.12198e+01
       E -4.42237e+00  6.01496e+01  2.61236e+01
3
# CELL(abcABC): 1322.94304  1322.94304  1322.94304    90.00000    90.00000    90.00000  Step:        2500  Bead:       1 positions{angstrom}  cell{angstrom}
       E -1.89400e+01 -1.47154e+01  5.06048e+01
       E  7.58431e+00 -2.54607e+01 -1.92222e+01
       E -3.81622e+01 -1.93739e+01  6.35873e+01
3
# CELL(abcABC): 1322.94304  1322.94304  1322.94304    90.00000    90.00000    90.00000  Step:        2600  Bead:       1 positions{angstrom}  cell{angstrom}
       E -5.22360e+00  4.35201e+00  9.69219e+01
       E -1.76664e+01 -5.86798e+01 -2.54878e+01
       E  1.01948e+01 -3.68008e+01  6.24702e+01
3
# CELL(abcABC): 1322.94304  1322.94304  1322.94304    90.00000    90.00000    90.00000  Step:        2700  Bead:       1 positions{angstrom}  cell{angstrom}
       E -2.41184e+01 -3.31198e+01  9.58777e+01
       E -4.37862e+01 -4.87441e+01 -6.43375e+00
       E  1.22460e+01 -1.01362e+00  3.94578e+01
3
# CELL(abcABC): 1322.94304  1322.94304  1322.94304    90.00000    90.00000    90.00000  Step:        2800  Bead:       1 positions{angstrom}  cell{angstrom}
       E -2.90826e+01 -6.29314e+01  6.08380e+01
       E -4.04080e+01 -3.38976e+01 -1.57387e+01
       E  2.05649e+01  1.06261e+01  4.91726e+01
3
# CELL(abcABC): 1322.94304  1322.94304  1322.94304    90.00000    90.00000    90.00000  Step:        2900  Bead:       1 positions{angstrom}  cell{angstrom}
       E -6.35027e+01 -8.94604e+01  6.13254e+01
       E -3.10196e+01 -4.61969e+01  1.75025e+01
       E  2.27225e+01 -5.97287e+00  6.19987e+01
3
# CELL(abcABC): 1322.94304  1322.94304  1322.94304    90.00000    90.00000    90.00000  Step:        3000  Bead:       1 positions{angstrom}  cell{angstrom}
       E -8.70560e+01 -2.15905e+00  7.53020e+00
       E -2.65309e+01 -4.97801e+01  9.03230e+00
       E  5.93235e+01 -4.32611e+00  5.33975e+01
3
# CELL(abcABC): 1322.94304  1322.94304  1322.94304    90.00000    90.00000    90.00000  Step:        3100  Bead:       1 positions{angstrom}  cell{angstrom}
       E -9.62391e+01 -1.69929e+01  4.22432e+01
       E -9.71815e+00 -8.10053e+01  3.59680e+01
       E  4.21201e+01  9.84528e+00  1.08789e+01
3
# CELL(abcABC): 1322.94304  1322.94304  1322.94304    90.00000    90.00000    90.00000  Step:        3200  Bead:       1 positions{angstrom}  cell{angstrom}
       E -9.07434e+01 -3.70829e+01  2.83169e+01
       E -6.22689e+01 -8.33399e+01  4.33073e+01
       E  9.33256e+01  2.24259e+01  7.11511e+01
3
# CELL(abcABC): 1322.94304  1322.94304  1322.94304    90.00000    90.00000    90.00000  Step:        3300  Bead:       1 positions{angstrom}  cell{angstrom}
       E -9.08332e+01 -2.32581e+00  6.36100e+01
       E -9.01586e+01 -4.40034e+01  3.65198e+01
       E  4.75465e+01  6.93528e+01  8.39830e+01
3
# CELL(abcABC): 1322.94304  1322.94304  1322.94304    90.00000    90.00000    90.00000  Step:        3400  Bead:       1 positions{angstrom}  cell{angstrom}
       E -9.40554e+01 -1.34653e+01  6.27658e+01
       E -6.50778e+01 -4.34310e+01  5.19140e+01
       E  3.80054e+01  4.70117e+01  5.87325e+01
3
# CELL(abcABC): 1322.94304  1322.94304  1322.94304    90.00000    90.00000    90.00000  Step:        3500  Bead:       1 positions{angstrom}  cell{angstrom}
       E -8.70871e+01 -2.27366e+01  3.17571e+01
       E -6.80483e+01 -5.39578e+01  3.93991e+01
       E -1.42862e+00  6.22073e+01  3.18675e+01
3
# CELL(abcABC): 1322.94304  1322.94304  1322.94304    90.00000    90.00000    90.00000  Step:        3600  Bead:       1 positions{angstrom}  cell{angstrom}
       E -9.93557e+01 -6.06003e+01  1.31994e+01
       E -5.38115e+01 -5.09294e+01  3.40412e+01
       E -3.54925e+01  1.98720e+00  6.42768e+00
3
# CELL(abcABC): 1322.94304  1322.94304  1322.94304    90.00000    90.00000    90.00000  Step:        3700  Bead:       1 positions{angstrom}  cell{angstrom}
       E -5.18616e+01 -4.66987e+01 -2.29305e+01
       E -1.06910e+01 -2.05106e+01  1.50815e+01
       E -4.23512e+01  6.33463e+00  8.33473e+00
3
# CELL(abcABC): 1322.94304  1322.94304  1322.94304    90.00000    90.00000    90.00000  Step:        3800  Bead:       1 positions{angstrom}  cell{angstrom}
       E -5.81426e+01 -3.61734e+01  2.06946e+01
       E -1.51152e+01 -1.58922e+01 -3.86914e+01
       E -2.97188e+01 -2.44598e+01  8.95119e+00
3
# CELL(abcABC): 1322.94304  1322.94304  1322.94304    90.00000    90.00000    90.00000  Step:        3900  Bead:       1 positions{angstrom}  cell{angstrom}
       E -9.06022e+01 -1.57132e+01 -1.89578e+01
       E -2.56307e+01 -2.50837e+01 -2.65490e+01
       E -7.40958e-02 -2.46511e+01  3.41585e+01
3
# CELL(abcABC): 1322.94304  1322.94304  1322.94304    90.00000    90.00000    90.00000  Step:        4000  Bead:       1 positions{angstrom}  cell{angstrom}
       E -1.18651e+02  2.73453e+01  2.39450e+00
       E -3.04599e+01 -9.42796e+00 -2.80736e+01
       E -4.97408e+00 -4.22595e+01  1.38908e+01
3
# CELL(abcABC): 1322.94304  1322.94304  1322.94304    90.00000    90.00000    90.00000  Step:        4100  Bead:       1 positions{angstrom}  cell{angstrom}
       E -1.06450e+02  6.67885e+01 -4.26836e+01
       E -2.08002e+01  2.97602e+01  1.33489e+01
       E -2.62041e+01  8.58984e+00 -2.41426e+01
3
# CELL(abcABC): 1322.94304  1322.94304  1322.94304    90.00000    90.00000    90.00000  Step:        4200  Bead:       1 positions{angstrom}  cell{angstrom}
       E -7.00609e+01  1.69277e+01 -4.87389e+01
       E -2.98490e+01  5.49471e+01  2.94299e+01
       E -3.76204e+01 -5.12736e+01  9.41006e+00
3
# CELL(abcABC): 1322.94304  1322.94304  1322.94304    90.00000    90.00000    90.00000  Step:        4300  Bead:       1 positions{angstrom}  cell{angstrom}
       E -8.03132e+01  1.14100e+01 -8.64767e+01
       E -5.43882e+01  4.85377e+01  1.15365e+00
       E -3.07848e+01 -3.85534e+01  2.65917e+01
3
# CELL(abcABC): 1322.94304  1322.94304  1322.94304    90.00000    90.00000    90.00000  Step:        4400  Bead:       1 positions{angstrom}  cell{angstrom}
       E -6.70084e+01  5.00990e+01 -7.63415e+01
       E -6.13523e+01  7.28645e+01  5.36718e+01
       E -1.62937e+01 -3.20702e+01  4.61905e+01
3
# CELL(abcABC): 1322.94304  1322.94304  1322.94304    90.00000    90.00000    90.00000  Step:        4500  Bead:       1 positions{angstrom}  cell{angstrom}
       E -5.55264e+01  4.18587e+01 -4.44675e+01
       E -8.06736e+01  7.20206e+01  4.06957e+01
       E -1.59045e+01 -1.89555e+01  1.17651e+01
3
# CELL(abcABC): 1322.94304  1322.94304  1322.94304    90.00000    90.00000    90.00000  Step:        4600  Bead:       1 positions{angstrom}  cell{angstrom}
       E -5.97471e+01  3.99647e+01  5.91504e-01
       E -5.10338e+01  5.40260e+01  2.38016e+01
       E -1.06369e+01 -3.16471e+01  2.40619e+01
3
# CELL(abcABC): 1322.94304  1322.94304  1322.94304    90.00000    90.00000    90.00000  Step:        4700  Bead:       1 positions{angstrom}  cell{angstrom}
       E -2.31039e+01  2.80791e+01 -4.28333e+01
       E -6.12910e+01  2.49417e+01 -1.76005e+01
       E -1.35708e+01 -3.90680e+00  2.71880e+01
3
# CELL(abcABC): 1322.94304  1322.94304  1322.94304    90.00000    90.00000    90.00000  Step:        4800  Bead:       1 positions{angstrom}  cell{angstrom}
       E  1.72719e+01  3.45972e+01 -2.96698e+01
       E -6.49330e+01 -3.60716e+01 -4.23288e+01
       E  1.49163e+01 -5.38085e+00 -5.88330e+00
3
# CELL(abcABC): 1322.94304  1322.94304  1322.94304    90.00000    90.00000    90.00000  Step:        4900  Bead:       1 positions{angstrom}  cell{angstrom}
       E  5.35989e+01  3.78456e+01 -4.75972e+01
       E -8.61097e+01 -3.70458e+01  3.64687e+00
       E  3.10505e+01  9.31531e+00 -8.26394e+01
3
# CELL(abcABC): 1322.94304  1322.94304  1322.94304    90.00000    90.00000    90.00000  Step:        5000  Bead:       1 positions{angstrom}  cell{angstrom}
       E  6.58678e+01  3.09153e+01 -2.05935e+01
       E -7.76469e+01 -4.39232e+01 -3.53805e+01
       E  1.53747e+01  1.91267e-01 -3.74129e+01
3
# CELL(abcABC): 1322.94304  1322.94304  1322.94304    90.00000    90.00000    90.00000  Step:        5100  Bead:       1 positions{angstrom}  cell{angstrom}
       E  7.38884e+01  6.19413e+01  2.98918e+01
       E -7.93443e+01 -4.15439e+01 -1.89526e+01
       E  4.67502e+01  6.20193e+00 -1.33492e+01
3
# CELL(abcABC): 1322.94304  1322.94304  1322.94304    90.00000    90.00000    90.00000  Step:        5200  Bead:       1 positions{angstrom}  cell{angstrom}
       E  3.27170e+01  4.47422e+01  8.85587e+00
       E -4.98006e+01  1.95418e+00 -1.60902e+01
       E  2.39772e+01  4.26060e+00 -3.73067e+01
3
# CELL(abcABC): 1322.94304  1322.94304  1322.94304    90.00000    90.00000    90.00000  Step:        5300  Bead:       1 positions{angstrom}  cell{angstrom}
       E  1.09193e+01  2.60681e+01  2.97377e-01
       E -5.84353e+01  3.20569e+01 -5.33777e+00
       E  1.01251e+01  2.27966e+01 -4.50662e+00
3
# CELL(abcABC): 1322.94304  1322.94304  1322.94304    90.00000    90.00000    90.00000  Step:        5400  Bead:       1 positions{angstrom}  cell{angstrom}
       E -5.86044e+00  5.49897e+00  2.74172e+01
       E -5.18343e+01 -5.58020e+00 -5.10248e+01
       E  1.28857e+01  2.58757e+01  1.02546e+01
3
# CELL(abcABC): 1322.94304  1322.94304  1322.94304    90.00000    90.00000    90.00000  Step:        5500  Bead:       1 positions{angstrom}  cell{angstrom}
       E  3.07214e+01  9.17881e+00 -1.62498e+00
       E -3.48421e+01  1.42817e+01 -1.06696e+01
       E -2.76178e+01  4.27020e+01  3.24641e+01
3
# CELL(abcABC): 1322.94304  1322.94304  1322.94304    90.00000    90.00000    90.00000  Step:        5600  Bead:       1 positions{angstrom}  cell{angstrom}
       E  2.46305e+01  2.23601e+01 -4.78831e+00
       E -2.51492e+01  9.99602e+00 -1.28722e+01
       E -1.07927e+01  2.95042e+01  1.57203e+01
3
# CELL(abcABC): 1322.94304  1322.94304  1322.94304    90.00000    90.00000    90.00000  Step:        5700  Bead:       1 positions{angstrom}  cell{angstrom}
       E -1.27756e+01  8.94788e+00  4.81443e+00
       E -3.26012e+01  2.67520e+01 -1.88963e+01
       E -6.32374e+01 -1.43624e+01  4.25244e+01
3
# CELL(abcABC): 1322.94304  1322.94304  1322.94304    90.00000    90.00000    90.00000  Step:        5800  Bead:       1 positions{angstrom}  cell{angstrom}
       E -1.04393e+01  2.19113e+01 -1.47884e+01
       E -2.43084e+01  4.06213e+01  1.96684e+01
       E -2.78572e+01 -3.09922e+01  1.11467e+01
3
# CELL(abcABC): 1322.94304  1322.94304  1322.94304    90.00000    90.00000    90.00000  Step:        5900  Bead:       1 positions{angstrom}  cell{angstrom}
       E  5.82901e+00  7.10895e+00 -1.10784e+01
       E -3.40834e+01  1.51584e+01 -1.39792e+01
       E  7.75987e-01 -2.55388e+01 -1.24425e+01
3
# CELL(abcABC): 1322.94304  1322.94304  1322.94304    90.00000    90.00000    90.00000  Step:        6000  Bead:       1 positions{angstrom}  cell{angstrom}
       E  8.49580e+00 -9.24423e+00 -3.85636e+01
       E -1.10871e+00 -3.56181e+00 -2.45181e+01
       E  1.69865e+01 -4.72206e+01 -3.98848e+01
3
# CELL(abcABC): 1322.94304  1322.94304  1322.94304    90.00000    90.00000    90.00000  Step:        6100  Bead:       1 positions{angstrom}  cell{angstrom}
       E  3.95729e+01 -1.79108e+01 -5.62662e+01
       E  1.44092e+01 -3.39765e+01 -2.24868e+01
       E -7.96297e+00 -3.41163e+01  6.19889e+00
3
# CELL(abcABC): 1322.94304  1322.94304  1322.94304    90.00000    90.00000    90.00000  Step:        6200  Bead:       1 positions{angstrom}  cell{angstrom}
       E  4.61853e+01 -2.62933e+01 -9.15488e+01
       E  4.64378e+01 -2.27942e+01 -1.74731e+01
       E -1.74178e+00 -2.90169e+01 -1.10677e+01
3
# CELL(abcABC): 1322.94304  1322.94304  1322.94304    90.00000    90.00000    90.00000  Step:        6300  Bead:       1 positions{angstrom}  cell{angstrom}
       E  2.79919e+01 -6.65737e+01 -9.94478e+01
       E  7.49045e+01 -2.60252e+01 -1.42810e+01
       E  8.22080e+00 -3.81550e+01  2.60734e-01
3
# CELL(abcABC): 1322.94304  1322.94304  1322.94304    90.00000    90.00000    90.00000  Step:        6400  Bead:       1 positions{angstrom}  cell{angstrom}
       E  2.34404e+01 -8.21996e+01 -1.03904e+02
       E  7.59954e+01 -3.99424e+01 -5.77392e+00
       E  1.55264e+00 -2.32340e+01  3.03265e+01
3
# CELL(abcABC): 1322.94304  1322.94304  1322.94304    90.00000    90.00000    90.00000  Step:        6500  Bead:       1 positions{angstrom}  cell{angstrom}
       E -5.81902e-01 -1.02205e+02 -1.07525e+02
       E  2.81925e+01  7.91133e+00 -5.97265e+01
       E -1.73345e+01 -2.83604e+01 -3.10506e+00
3
# CELL(abcABC): 1322.94304  1322.94304  1322.94304    90.00000    90.00000    90.00000  Step:        6600  Bead:       1 positions{angstrom}  cell{angstrom}
       E  2.65523e+00 -8.62235e+01 -1.21536e+02
       E  2.60985e+01 -8.04416e+00 -2.54616e+01
       E -3.12663e+01 -3.61105e+01  3.74015e+01
3
# CELL(abcABC): 1322.94304  1322.94304  1322.94304    90.00000    90.00000    90.00000  Step:        6700  Bead:       1 positions{angstrom}  cell{angstrom}
       E  2.49907e+01 -7.03912e+01 -1.15830e+02
       E  4.45698e+01 -2.00028e+01 -3.38422e+01
       E -1.73759e+01  5.04110e+00  4.89939e+01
3
# CELL(abcABC): 1322.94304  1322.94304  1322.94304    90.00000    90.00000    90.00000  Step:        6800  Bead:       1 positions{angstrom}  cell{angstrom}
       E -1.78534e+01 -7.83883e+01 -9.62208e+01
       E  3.43852e+01 -1.67552e+01 -1.57752e+01
       E  1.63096e+01  7.72183e+00  6.78452e+01
3
# CELL(abcABC): 1322.94304  1322.94304  1322.94304    90.00000    90.00000    90.00000  Step:        6900  Bead:       1 positions{angstrom}  cell{angstrom}
       E -1.53316e+01 -7.79901e+01 -7.16512e+01
       E -7.10385e+00 -2.89382e+00  1.36633e-01
       E  9.93660e+00 -1.27639e+01  4.56781e+01
3
# CELL(abcABC): 1322.94304  1322.94304  1322.94304    90.00000    90.00000    90.00000  Step:        7000  Bead:       1 positions{angstrom}  cell{angstrom}
       E -1.34835e+01 -3.13934e+01 -4.31409e+01
       E -2.22712e+01  1.13779e+01 -3.89135e+01
       E -1.47517e-01  1.99720e+01  4.09116e+01
3
# CELL(abcABC): 1322.94304  1322.94304  1322.94304    90.00000    90.00000    90.00000  Step:        7100  Bead:       1 positions{angstrom}  cell{angstrom}
       E -2.40881e+01 -2.05967e+01 -3.30731e+01
       E -2.58313e+01  6.08621e+01  1.82003e+01
       E  3.30169e+01  1.85229e+01  4.42783e+00
3
# CELL(abcABC): 1322.94304  1322.94304  1322.94304    90.00000    90.00000    90.00000  Step:        7200  Bead:       1 positions{angstrom}  cell{angstrom}
       E -4.22371e+01 -1.79125e+01 -6.10391e+01
       E -4.69163e+01  3.60200e+01  4.17682e+01
       E  3.38045e+01  4.86560e+01  7.93670e-01
3
# CELL(abcABC): 1322.94304  1322.94304  1322.94304    90.00000    90.00000    90.00000  Step:        7300  Bead:       1 positions{angstrom}  cell{angstrom}
       E -2.81274e+00 -2.52386e+01 -4.86383e+01
       E -3.15964e+01  5.09718e+01  3.72936e+01
       E  3.41262e+01  3.83933e+01 -3.12536e+01
3
# CELL(abcABC): 1322.94304  1322.94304  1322.94304    90.00000    90.00000    90.00000  Step:        7400  Bead:       1 positions{angstrom}  cell{angstrom}
       E  2.60682e+01 -6.45146e+00 -8.56149e+00
       E -2.06081e+01  2.38362e+01  4.84782e+01
       E  4.68665e+01  4.14254e+01 -4.77606e+01
3
# CELL(abcABC): 1322.94304  1322.94304  1322.94304    90.00000    90.00000    90.00000  Step:        7500  Bead:       1 positions{angstrom}  cell{angstrom}
       E -6.23505e+00 -5.04880e+01 -3.21243e+01
       E -4.32081e+01 -1.81322e+00  1.58198e+01
       E  6.74460e+01  6.43626e+01 -3.45026e+01
3
# CELL(abcABC): 1322.94304  1322.94304  1322.94304    90.00000    90.00000    90.00000  Step:        7600  Bead:       1 positions{angstrom}  cell{angstrom}
       E -2.08556e+01 -6.58772e+01 -2.88815e+01
       E -1.63859e+01 -3.95165e+01 -1.32020e+01
       E  6.57999e+01  5.92259e+01 -1.35021e+01
3
# CELL(abcABC): 1322.94304  1322.94304  1322.94304    90.00000    90.00000    90.00000  Step:        7700  Bead:       1 positions{angstrom}  cell{angstrom}
       E -1.68806e+01 -7.40734e+01 -3.62187e+01
       E -3.16040e+00 -5.43335e+01 -8.85752e-01
       E  4.89734e+01  7.45889e+00  7.52764e+00
3
# CELL(abcABC): 1322.94304  1322.94304  1322.94304    90.00000    90.00000    90.00000  Step:        7800  Bead:       1 positions{angstrom}  cell{angstrom}
       E  1.02752e+01 -3.23194e+01 -5.37117e+01
       E  3.04866e+01 -6.19262e+01 -4.07540e+01
       E  4.48709e+01 -1.15372e+01 -6.34802e+01
3
# CELL(abcABC): 1322.94304  1322.94304  1322.94304    90.00000    90.00000    90.00000  Step:        7900  Bead:       1 positions{angstrom}  cell{angstrom}
       E  1.29685e+00  5.99483e+00 -2.53053e+01
       E  4.33078e+01 -2.17429e+01 -4.79706e+01
       E  8.20816e+01  8.09086e+00 -3.55614e+01
3
# CELL(abcABC): 1322.94304  1322.94304  1322.94304    90.00000    90.00000    90.00000  Step:        8000  Bead:       1 positions{angstrom}  cell{angstrom}
       E  2.87414e+01  2.43498e+01 -1.38472e+01
       E  2.48710e+01 -3.53682e+01 -6.89989e+01
       E  4.69537e+01  1.53638e+01 -3.07523e+01
3
# CELL(abcABC): 1322.94304  1322.94304  1322.94304    90.00000    90.00000    90.00000  Step:        8100  Bead:       1 positions{angstrom}  cell{angstrom}
       E  3.29515e+01  3.98947e+01 -5.59995e+00
       E -5.44932e+00 -1.71671e+00 -2.13100e+01
       E -5.70354e+00 -2.62070e+01 -9.77469e+00
3
# CELL(abcABC): 1322.94304  1322.94304  1322.94304    90.00000    90.00000    90.00000  Step:        8200  Bead:       1 positions{angstrom}  cell{angstrom}
       E  1.44183e+01  1.44391e+01 -1.32345e+01
       E -5.80521e+00  3.18893e+01 -2.71057e+01
       E  2.53809e+01 -4.28632e+01  5.74265e-01
3
# CELL(abcABC): 1322.94304  1322.94304  1322.94304    90.00000    90.00000    90.00000  Step:        8300  Bead:       1 positions{angstrom}  cell{angstrom}
       E  3.24405e+01  2.60238e+01 -8.21281e+00
       E  3.80012e+01 -9.02067e+00  3.24159e+01
       E  2.21662e+01 -1.86958e+01  1.63249e+01
3
# CELL(abcABC): 1322.94304  1322.94304  1322.94304    90.00000    90.00000    90.00000  Step:        8400  Bead:       1 positions{angstrom}  cell{angstrom}
       E  3.23398e+01 -1.51845e+01  6.47069e+00
       E  1.81794e+01  2.76463e+01  3.57631e+01
       E  3.54065e+01 -1.60634e+01  3.08092e+01
3
# CELL(abcABC): 1322.94304  1322.94304  1322.94304    90.00000    90.00000    90.00000  Step:        8500  Bead:       1 positions{angstrom}  cell{angstrom}
       E  9.46166e-01 -1.95155e+00 -1.81940e+01
       E  3.37169e+01  2.66907e+01  2.02000e+01
       E  4.56454e+01  7.79338e+00  2.65984e+01
3
# CELL(abcABC): 1322.94304  1322.94304  1322.94304    90.00000    90.00000    90.00000  Step:        8600  Bead:       1 positions{angstrom}  cell{angstrom}
       E -8.71880e+00 -8.60328e+00 -4.24898e+00
       E  3.81940e+01 -1.48187e+01 -3.13436e+00
       E  5.58148e+01  5.55866e+00  4.40567e+01
3
# CELL(abcABC): 1322.94304  1322.94304  1322.94304    90.00000    90.00000    90.00000  Step:        8700  Bead:       1 positions{angstrom}  cell{angstrom}
       E -2.86163e+01  3.12580e+01 -2.45106e+01
       E  2.99118e+01 -2.13018e+01 -2.22787e+01
       E  4.83235e+01 -4.34741e+01  3.06138e+01
3
# CELL(abcABC): 1322.94304  1322.94304  1322.94304    90.00000    90.00000    90.00000  Step:        8800  Bead:       1 positions{angstrom}  cell{angstrom}
       E -1.25455e+01  3.82563e+01 -1.86719e+01
       E -8.88901e+00 -4.02146e+01  1.15366e+01
       E  7.06332e+01 -6.54080e+01  5.39455e+01
3
# CELL(abcABC): 1322.94304  1322.94304  1322.94304    90.00000    90.00000    90.00000  Step:        8900  Bead:       1 positions{angstrom}  cell{angstrom}
       E -1.72763e+01  3.40213e+01 -1.47021e+01
       E -2.46630e+01 -3.54273e+01  3.25212e+01
       E  2.02363e+01 -6.57484e+01  3.15032e+01
3
# CELL(abcABC): 1322.94304  1322.94304  1322.94304    90.00000    90.00000    90.00000  Step:        9000  Bead:       1 positions{angstrom}  cell{angstrom}
       E -1.32889e+01  5.50670e+01  1.80865e+01
       E -3.88904e+01 -3.49191e+01  1.77359e+01
       E  1.35242e+01 -6.27167e+01 -1.67763e+00
3
# CELL(abcABC): 1322.94304  1322.94304  1322.94304    90.00000    90.00000    90.00000  Step:        9100  Bead:       1 positions{angstrom}  cell{angstrom}
       E  1.90400e+01  4.64962e+01  2.78179e+01
       E -5.97893e+01  1.30602e+00  2.03163e+01
       E -2.56142e+00 -4.58237e+01 -4.48270e+00
3
# CELL(abcABC): 1322.94304  1322.94304  1322.94304    90.00000    90.00000    90.00000  Step:        9200  Bead:       1 positions{angstrom}  cell{angstrom}
       E  1.81179e+01  3.71727e+01 -8.29051e+00
       E -6.63873e+00 -2.40018e+01  5.16600e+01
       E  8.02112e+00 -4.57718e+01 -2.58915e+01
3
# CELL(abcABC): 1322.94304  1322.94304  1322.94304    90.00000    90.00000    90.00000  Step:        9300  Bead:       1 positions{angstrom}  cell{angstrom}
       E  4.84785e+01  6.11319e+01 -5.13335e+01
       E  8.56557e+00 -5.72050e+01  2.90727e+01
       E  5.47610e+01 -2.40547e+01  1.59864e+01
3
# CELL(abcABC): 1322.94304  1322.94304  1322.94304    90.00000    90.00000    90.00000  Step:        9400  Bead:       1 positions{angstrom}  cell{angstrom}
       E  3.50600e+01  3.30851e+01 -3.82019e+01
       E  2.04220e+01 -3.53230e+01  1.05131e+01
       E  1.70271e+01 -9.17672e+00  1.76429e+01
3
# CELL(abcABC): 1322.94304  1322.94304  1322.94304    90.00000    90.00000    90.00000  Step:        9500  Bead:       1 positions{angstrom}  cell{angstrom}
       E -5.44692e+00  2.76082e+01 -2.99244e+01
       E  4.09125e+01 -2.16368e+01  2.17377e+01
       E -1.64329e+01 -4.22544e+00  1.00049e+01
3
# CELL(abcABC): 1322.94304  1322.94304  1322.94304    90.00000    90.00000    90.00000  Step:        9600  Bead:       1 positions{angstrom}  cell{angstrom}
       E -1.49013e+01  9.84270e-01 -5.18895e+01
       E  2.01073e+01 -3.04462e+01  3.74534e+01
       E -2.14107e+01 -4.47475e+01 -6.49869e+00
3
# CELL(abcABC): 1322.94304  1322.94304  1322.94304    90.00000    90.00000    90.00000  Step:        9700  Bead:       1 positions{angstrom}  cell{angstrom}
       E -5.41627e+01 -1.61790e+01 -6.87449e+01
       E  4.75541e+01 -6.82664e+01  7.42339e+00
       E -2.68860e+01 -2.19917e+01 -2.06748e+00
3
# CELL(abcABC): 1322.94304  1322.94304  1322.94304    90.00000    90.00000    90.00000  Step:        9800  Bead:       1 positions{angstrom}  cell{angstrom}
       E -4.69996e+01 -6.78377e+01 -6.62948e+01
       E  5.33947e+01 -9.53981e+01 -1.41791e+01
       E  1.43795e+00 -2.68414e+01  4.18471e+01
3