3
# CELL(abcABC): 1322.94304  1322.94304  1322.94304    90.00000    90.00000    90.00000  Step:           0  Bead:       2 positions{angstrom}  cell{angstrom}
       E  0.00000e+00  0.00000e+00  0.00000e+00
       E  0.00000e+00  0.00000e+00  0.00000e+00
       E  0.00000e+00  0.00000e+00  0.00000e+00
3
# CELL(abcABC): 1322.94304  1322.94304  1322.94304    90.00000    90.00000    90.00000  Step:         100  Bead:       2 positions{angstrom}  cell{angstrom}
       E -4.11321e+01 -5.77907e+01  4.19562e-01
       E  4.82453e+00 -1.45037e+00  3.83571e+00
       E -6.46843e+00  1.63656e+01  7.14966e+00
3
# CELL(abcABC): 1322.94304  1322.94304  1322.94304    90.00000    90.00000    90.00000  Step:         200  Bead:       2 positions{angstrom}  cell{angstrom}
       E -1.74103e+01 -1.81296e+01  1.32573e+01
       E  3.70206e+01  8.13600e+00 -5.34034e+00
       E -1.69461e+00  1.80383e+01  2.35903e+01
3
# CELL(abcABC): 1322.94304  1322.94304  1322.94304    90.00000    90.00000    90.00000  Step:         300  Bead:       2 positions{angstrom}  cell{angstrom}
       E  3.25151e+01  4.58606e+00 -2.72619e+01
       E  2.10165e+00 -2.01542e+00  1.22797e+01
       E -3.02903e+01  3.28254e+01  1.83186e+01
3
# CELL(abcABC): 1322.94304  1322.94304  1322.94304    90.00000    90.00000    90.00000  Step:         400  Bead:       2 positions{angstrom}  cell{angstrom}
       E  4.88085e+01 -7.73182e+00 -9.09813e+00
       E  1.41508e+01  3.15727e+00  4.13506e+01
       E -1.92192e+01  3.71890e+01  1.85162e+01
3
# CELL(abcABC): 1322.94304  1322.94304  1322.94304    90.00000    90.00000    90.00000  Step:         500  Bead:       2 positions{angstrom}  cell{angstrom}
       E  2.52511e+00  3.20927e+00 -1.15483e+01
       E  3.18258e+01  4.89044e+00  2.91410e+01
       E -1.16729e+01  2.25179e+01  7.92260e+00
3
# CELL(abcABC): 1322.94304  1322.94304  1322.94304    90.00000    90.00000    90.00000  Step:         600  Bead:       2 positions{angstrom}  cell{angstrom}
       E  7.11438e+00  1.29862e+01 -4.22863e+01
       E -2.64577e+01 -1.74568e+00  3.08066e+01
       E -1.56984e+01  3.27484e+01  3.03053e+01
3
# CELL(abcABC): 1322.94304  1322.94304  1322.94304    90.00000    90.00000    90.00000  Step:         700  Bead:       2 positions{angstrom}  cell{angstrom}
       E -1.74809e+01  2.15847e+01 -2.86544e+01
       E -2.16130e+01 -6.91916e+00  3.57160e+01
       E  1.22366e+01  7.67801e+00  5.65922e+01
3
# CELL(abcABC): 1322.94304  1322.94304  1322.94304    90.00000    90.00000    90.00000  Step:         800  Bead:       2 positions{angstrom}  cell{angstrom}
       E  4.26119e+00  2.94643e+01 -3.33946e+01
       E -1.67692e+00  1.70017e+00  1.87638e+01
       E -3.60921e+01  4.94417e+01  5.88187e+01
3
# CELL(abcABC): 1322.94304  1322.94304  1322.94304    90.00000    90.00000    90.00000  Step:         900  Bead:       2 positions{angstrom}  cell{angstrom}
       E  1.75190e+01 -1.90313e+00 -2.95124e+01
       E  3.55646e+01 -2.69697e+00  2.10031e+01
       E -6.51602e+01  3.73193e+01  1.01657e+02
3
# CELL(abcABC): 1322.94304  1322.94304  1322.94304    90.00000    90.00000    90.00000  Step:        1000  Bead:       2 positions{angstrom}  cell{angstrom}
       E  5.58699e+00 -3.05731e+01 -5.19602e+01
       E  2.00268e+01  1.62469e+01 -1.82545e+01
       E -2.15847e+01 -3.67422e+00  1.21441e+02
3
# CELL(abcABC): 1322.94304  1322.94304  1322.94304    90.00000    90.00000    90.00000  Step:        1100  Bead:       2 positions{angstrom}  cell{angstrom}
       E  1.07122e+01  4.52244e+01 -6.47824e+01
       E  4.43713e+01 -1.40400e+01 -4.33479e+01
       E -3.07386e+01 -1.20192e+01  7.22608e+01
3
# CELL(abcABC): 1322.94304  1322.94304  1322.94304    90.00000    90.00000    90.00000  Step:        1200  Bead:       2 positions{angstrom}  cell{angstrom}
       E  1.65684e+01  4.37570e+01 -5.96851e+01
       E  2.41029e+01  6.14222e+00 -5.56573e+01
       E  1.41176e+00  1.62580e+01  2.64920e+01
3
# CELL(abcABC): 1322.94304  1322.94304  1322.94304    90.00000    90.00000    90.00000  Step:        1300  Bead:       2 positions{angstrom}  cell{angstrom}
       E  1.92396e+01  1.96876e+01 -7.36757e+01
       E  3.61445e-01 -8.37717e+01 -2.91141e+01
       E -1.85121e+01  4.00326e+01  3.49743e+01
3
# CELL(abcABC): 1322.94304  1322.94304  1322.94304    90.00000    90.00000    90.00000  Step:        1400  Bead:       2 positions{angstrom}  cell{angstrom}
       E -2.04861e+01  2.89740e+00 -4.36932e+01
       E -2.34662e+01 -2.21736e+01 -5.43321e+01
       E -5.04443e+01  3.88110e+01  3.60886e+01
3
# CELL(abcABC): 1322.94304  1322.94304  1322.94304    90.00000    90.00000    90.00000  Step:        1500  Bead:       2 positions{angstrom}  cell{angstrom}
       E -5.13005e+01  3.36263e+01 -5.41819e+01
       E -2.03363e+01 -3.44175e+01 -4.04768e+01
       E -1.60535e+01  2.91742e+01  2.25641e+01
3
# CELL(abcABC): 1322.94304  1322.94304  1322.94304    90.00000    90.00000    90.00000  Step:        1600  Bead:       2 positions{angstrom}  cell{angstrom}
       E -2.34589e+01  2.15424e+01 -5.15384e+01
       E -4.88462e+00 -3.22312e+01 -1.05573e+01
       E -2.27360e+01  6.48088e+01  3.34128e+01
3
# CELL(abcABC): 1322.94304  1322.94304  1322.94304    90.00000    90.00000    90.00000  Step:        1700  Bead:       2 positions{angstrom}  cell{angstrom}
       E -5.27710e+01  1.31681e+01 -2.52157e+01
       E -6.50968e+00 -9.52845e+00 -8.56899e+00
       E -1.38718e+01  7.76898e+01  2.81967e+01
3
# CELL(abcABC): 1322.94304  1322.94304  1322.94304    90.00000    90.00000    90.00000  Step:        1800  Bead:       2 positions{angstrom}  cell{angstrom}
       E -4.69064e+01  1.43261e+01  1.12738e+01
       E -5.49204e+01 -1.12274e+00  7.15932e+00
       E -3.92243e+01  5.40379e+01  3.55563e+01
3
# CELL(abcABC): 1322.94304  1322.94304  1322.94304    90.00000    90.00000    90.00000  Step:        1900  Bead:       2 positions{angstrom}  cell{angstrom}
       E -3.95988e+01  3.30899e+01  1.64160e+01
       E -4.30071e+01 -2.03503e+01 -3.31088e+01
       E -6.23891e+01  2.74655e+01  1.89348e+01
3
# CELL(abcABC): 1322.94304  1322.94304  1322.94304    90.00000    90.00000    90.00000  Step:        2000  Bead:       2 positions{angstrom}  cell{angstrom}
       E -2.89688e+01 -8.73937e+00  3.19537e+01
       E -2.08664e+01 -1.33546e+01  2.73411e+01
       E -5.38434e+01  5.42370e+01  6.39311e+00
3
# CELL(abcABC): 1322.94304  1322.94304  1322.94304    90.00000    90.00000    90.00000  Step:        2100  Bead:       2 positions{angstrom}  cell{angstrom}
       E -7.75974e+00 -7.01413e+01  2.68930e+01
       E -4.31810e+01 -2.39107e+01  8.23707e-01
       E -6.49493e+01  4.40822e+01  9.27902e+00
3
# CELL(abcABC): 1322.94304  1322.94304  1322.94304    90.00000    90.00000    90.00000  Step:        2200  Bead:       2 positions{angstrom}  cell{angstrom}
       E  2.81631e+01 -6.52313e+01  2.88389e+01
       E -5.63194e+01 -2.09008e+01 -2.85525e-01
       E -8.22914e+01  4.76252e+01  2.65659e+01
3
# CELL(abcABC): 1322.94304  1322.94304  1322.94304    90.00000    90.00000    90.00000  Step:        2300  Bead:       2 positions{angstrom}  cell{angstrom}
       E  2.03203e+01 -7.41200e+01 -5.66686e+00
       E -3.25059e+01 -1.47193e+01 -2.82185e+01
       E -2.36037e+01  9.07061e+01  3.44937e+01
3
# CELL(abcABC): 1322.94304  1322.94304  1322.94304    90.00000    90.00000    90.00000  Step:        2400  Bead:       2 positions{angstrom}  cell{angstrom}
       E -1.39111e+01 -4.02750e+01  2.83458e+01
       E  2.27250e+00 -4.68165e+01 -2.22668e+01
       E -6.48305e+00  5.42532e+01  3.17371e+01
3
# CELL(abcABC): 1322.94304  1322.94304  1322.94304    90.00000    90.00000    90.00000  Step:        2500  Bead:       2 positions{angstrom}  cell{angstrom}
       E  2.77154e+00 -2.42770e+01  4.27132e+01
       E -5.93961e+00 -9.56332e+00 -2.67812e+01
       E -2.46256e+01 -2.35291e+01  6.15164e+01
3
# CELL(abcABC): 1322.94304  1322.94304  1322.94304    90.00000    90.00000    90.00000  Step:        2600  Bead:       2 positions{angstrom}  cell{angstrom}
       E -3.82988e+00 -3.71990e+01  9.22738e+01
       E -2.97119e+01 -3.77420e+01 -3.90073e+01
       E  4.70457e+00 -3.76353e+01  3.41644e+01
3
# CELL(abcABC): 1322.94304  1322.94304  1322.94304    90.00000    90.00000    90.00000  Step:        2700  Bead:       2 positions{angstrom}  cell{angstrom}
       E -3.26392e+01 -1.70123e+01  8.12662e+01
       E -5.80811e+01 -5.62186e+01 -1.37378e+01
       E  1.41496e+01  1.14852e+01  5.47606e+01
3
# CELL(abcABC): 1322.94304  1322.94304  1322.94304    90.00000    90.00000    90.00000  Step:        2800  Bead:       2 positions{angstrom}  cell{angstrom}
       E -8.77255e+00 -8.04479e+01  5.69985e+01
       E -4.96633e+01 -2.85164e+01 -3.07412e+01
       E  1.46298e+01  2.42717e+01  3.43902e+01
3
# CELL(abcABC): 1322.94304  1322.94304  1322.94304    90.00000    90.00000    90.00000  Step:        2900  Bead:       2 positions{angstrom}  cell{angstrom}
       E -7.67625e+01 -8.40929e+01  4.85046e+01
       E -2.45204e+01 -4.95619e+01  7.27815e+00
       E  4.33804e+01 -5.77679e+00  4.35159e+01
3
# CELL(abcABC): 1322.94304  1322.94304  1322.94304    90.00000    90.00000    90.00000  Step:        3000  Bead:       2 positions{angstrom}  cell{angstrom}
       E -6.60741e+01 -1.68411e+01  1.27814e+01
       E -2.90182e+01 -4.93527e+01  1.57024e+01
       E  4.98709e+01  6.90448e+00  4.50381e+01
3
# CELL(abcABC): 1322.94304  1322.94304  1322.94304    90.00000    90.00000    90.00000  Step:        3100  Bead:       2 positions{angstrom}  cell{angstrom}
       E -8.12998e+01 -4.06878e+01  3.55877e+01
       E -1.00945e+01 -8.81372e+01  3.51009e+01
       E  1.43266e+01 -4.25265e+00  2.46945e+01
3
# CELL(abcABC): 1322.94304  1322.94304  1322.94304    90.00000    90.00000    90.00000  Step:        3200  Bead:       2 positions{angstrom}  cell{angstrom}
       E -7.96783e+01 -2.69076e+01  3.84841e+01
       E -4.51223e+01 -7.77982e+01  4.42423e+01
       E  8.80294e+01  4.69499e+01  4.37672e+01
3
# CELL(abcABC): 1322.94304  1322.94304  1322.94304    90.00000    90.00000    90.00000  Step:        3300  Bead:       2 positions{angstrom}  cell{angstrom}
       E -7.42430e+01 -2.67122e+01  6.92938e+01
       E -7.35425e+01 -4.00399e+01  5.51776e+01
       E  4.67212e+01  5.42226e+01  7.56083e+01
3
# CELL(abcABC): 1322.94304  1322.94304  1322.94304    90.00000    90.00000    90.00000  Step:        3400  Bead:       2 positions{angstrom}  cell{angstrom}
       E -9.95473e+01 -3.11170e+01  9.15205e+01
       E -7.45549e+01 -5.08981e+01  4.80549e+01
       E  1.64311e+01  3.55475e+01  6.97548e+01
3
# CELL(abcABC): 1322.94304  1322.94304  1322.94304    90.00000    90.00000    90.00000  Step:        3500  Bead:       2 positions{angstrom}  cell{angstrom}
       E -8.52888e+01 -3.12558e+01  2.90045e+01
       E -6.70502e+01 -6.24137e+01  4.18539e+01
       E  8.84572e-01  4.38005e+01  4.71961e+01
3
# CELL(abcABC): 1322.94304  1322.94304  1322.94304    90.00000    90.00000    90.00000  Step:        3600  Bead:       2 positions{angstrom}  cell{angstrom}
       E -9.64879e+01 -4.60779e+01  4.27188e+00
       E -5.61932e+01 -5.16050e+01  3.28195e+01
       E -2.33301e+01  2.83037e+01  1.63091e+01
3
# CELL(abcABC): 1322.94304  1322.94304  1322.94304    90.00000    90.00000    90.00000  Step:        3700  Bead:       2 positions{angstrom}  cell{angstrom}
       E -4.17523e+01 -4.99476e+01 -2.38159e+01
       E -1.32965e+01 -4.14143e+01  2.10352e+01
       E -6.52581e+01 -6.91151e-01  5.12550e+00
3
# CELL(abcABC): 1322.94304  1322.94304  1322.94304    90.00000    90.00000    90.00000  Step:        3800  Bead:       2 positions{angstrom}  cell{angstrom}
       E -5.36352e+01 -4.22341e+01 -1.71491e+01
       E -1.87850e+01 -2.78057e+01 -2.34277e+01
       E -1.42799e+01 -1.84603e+01  1.09518e+01
3
# CELL(abcABC): 1322.94304  1322.94304  1322.94304    90.00000    90.00000    90.00000  Step:        3900  Bead:       2 positions{angstrom}  cell{angstrom}
       E -9.59412e+01  1.51827e+01 -1.10866e+01
       E -1.63019e+01 -8.86250e+00 -5.22492e+01
       E -8.44909e+00 -4.22610e+01  1.57564e+01
3
# CELL(abcABC): 1322.94304  1322.94304  1322.94304    90.00000    90.00000    90.00000  Step:        4000  Bead:       2 positions{angstrom}  cell{angstrom}
       E -1.23237e+02  3.13682e+01 -4.15746e+00
       E -3.94641e+01 -1.68688e+01 -4.13836e+01
       E  1.48516e+01 -5.07358e+01  2.28907e+01
3
# CELL(abcABC): 1322.94304  1322.94304  1322.94304    90.00000    90.00000    90.00000  Step:        4100  Bead:       2 positions{angstrom}  cell{angstrom}
       E -9.81638e+01  7.27801e+01 -6.48907e+01
       E -1.41533e+01  5.23071e+01  1.29868e+01
       E -2.12517e+01  1.40759e+01 -2.53569e+01
3
# CELL(abcABC): 1322.94304  1322.94304  1322.94304    90.00000    90.00000    90.00000  Step:        4200  Bead:       2 positions{angstrom}  cell{angstrom}
       E -7.39320e+01  5.28091e+01 -5.22661e+01
       E -2.43996e+01  6.07438e+01  2.62958e+01
       E -4.58646e+01 -3.96827e+01 -5.25600e+00
3
# CELL(abcABC): 1322.94304  1322.94304  1322.94304    90.00000    90.00000    90.00000  Step:        4300  Bead:       2 positions{angstrom}  cell{angstrom}
       E -7.21929e+01  1.59619e+01 -7.79573e+01
       E -4.36337e+01  5.61831e+01 -6.05743e+00
       E -4.13598e+01 -4.55912e+01  3.06856e+01
3
# CELL(abcABC): 1322.94304  1322.94304  1322.94304    90.00000    90.00000    90.00000  Step:        4400  Bead:       2 positions{angstrom}  cell{angstrom}
       E -7.03106e+01  5.21981e+01 -8.60968e+01
       E -5.42312e+01  7.59559e+01  4.61190e+01
       E -2.17825e+01 -1.97545e+01  3.53204e+01
3
# CELL(abcABC): 1322.94304  1322.94304  1322.94304    90.00000    90.00000    90.00000  Step:        4500  Bead:       2 positions{angstrom}  cell{angstrom}
       E -6.66217e+01  4.02171e+01 -3.84833e+01
       E -6.62822e+01  8.81402e+01  4.19534e+01
       E -1.97382e+01 -4.45111e+01  2.63222e+01
3
# CELL(abcABC): 1322.94304  1322.94304  1322.94304    90.00000    90.00000    90.00000  Step:        4600  Bead:       2 positions{angstrom}  cell{angstrom}
       E -5.59981e+01  2.08645e+01 -3.17442e+01
       E -6.46190e+01  4.58270e+01  1.73299e+01
       E -1.13071e+01 -2.57915e+01  2.71360e+01
3
# CELL(abcABC): 1322.94304  1322.94304  1322.94304    90.00000    90.00000    90.00000  Step:        4700  Bead:       2 positions{angstrom}  cell{angstrom}
       E -3.56418e+01  3.34387e+01 -3.21257e+01
       E -6.11547e+01  2.98691e+01  3.05300e+00
       E  7.87237e-02  2.92940e+00  3.35438e+01
3
# CELL(abcABC): 1322.94304  1322.94304  1322.94304    90.00000    90.00000    90.00000  Step:        4800  Bead:       2 positions{angstrom}  cell{angstrom}
       E  1.80118e+01  2.01765e+01 -2.51069e+01
       E -5.58530e+01 -3.32917e+01 -2.43952e+01
       E  3.33381e+00  3.73253e+00 -2.09043e+01
3
# CELL(abcABC): 1322.94304  1322.94304  1322.94304    90.00000    90.00000    90.00000  Step:        4900  Bead:       2 positions{angstrom}  cell{angstrom}
       E  6.33703e+01  4.13752e+01 -2.46691e+01
       E -8.85081e+01 -4.07584e+01 -1.28258e+01
       E  2.18840e+01  4.02300e+00 -5.34930e+01
3
# CELL(abcABC): 1322.94304  1322.94304  1322.94304    90.00000    90.00000    90.00000  Step:        5000  Bead:       2 positions{angstrom}  cell{angstrom}
       E  6.40165e+01  2.92538e+01 -1.28164e+01
       E -8.41802e+01 -5.88670e+01 -2.67165e+01
       E -8.07584e-01 -1.16927e+01 -5.20864e+01
3
# CELL(abcABC): 1322.94304  1322.94304  1322.94304    90.00000    90.00000    90.00000  Step:        5100  Bead:       2 positions{angstrom}  cell{angstrom}
       E  4.89738e+01  3.88408e+01  2.75096e+01
       E -8.83976e+01 -5.26817e+01 -1.02883e+01
       E  4.01534e+01  3.14065e+00 -1.12509e+01
3
# CELL(abcABC): 1322.94304  1322.94304  1322.94304    90.00000    90.00000    90.00000  Step:        5200  Bead:       2 positions{angstrom}  cell{angstrom}
       E  3.51250e+01  4.08038e+01 -4.61388e+00
       E -5.13892e+01 -3.62063e+00 -1.97593e+01
       E  1.83195e+01  2.02621e+01 -3.95336e+01
3
# CELL(abcABC): 1322.94304  1322.94304  1322.94304    90.00000    90.00000    90.00000  Step:        5300  Bead:       2 positions{angstrom}  cell{angstrom}
       E  2.13053e+01  1.13935e+01 -1.52679e+01
       E -5.13418e+01  3.57164e+01 -4.33679e+00
       E  4.11959e+00  2.75821e+01 -5.66049e-01
3
# CELL(abcABC): 1322.94304  1322.94304  1322.94304    90.00000    90.00000    90.00000  Step:        5400  Bead:       2 positions{angstrom}  cell{angstrom}
       E -1.15152e+01  1.41669e+01  2.31186e+01
       E -6.97722e+01  1.47639e+01 -2.03535e+01
       E -6.10035e+00  4.36719e+01  2.87602e+01
3
# CELL(abcABC): 1322.94304  1322.94304  1322.94304    90.00000    90.00000    90.00000  Step:        5500  Bead:       2 positions{angstrom}  cell{angstrom}
       E  6.90603e+00  3.21189e+01  3.58790e+01
       E -3.52165e+01  3.60097e+01 -2.16260e+00
       E -1.99310e+01  4.87415e+01  3.00418e+01
3
# CELL(abcABC): 1322.94304  1322.94304  1322.94304    90.00000    90.00000    90.00000  Step:        5600  Bead:       2 positions{angstrom}  cell{angstrom}
       E  9.31740e+00  3.62055e+01 -4.46923e+00
       E -3.59944e+01 -2.17117e+00 -1.82192e+01
       E -1.90726e+00  4.35209e+00  3.04329e+01
3
# CELL(abcABC): 1322.94304  1322.94304  1322.94304    90.00000    90.00000    90.00000  Step:        5700  Bead:       2 positions{angstrom}  cell{angstrom}
       E -6.79983e+00 -2.84715e+00  3.16356e+01
       E -1.46213e+01  1.21002e+01 -1.08264e+01
       E -5.37565e+01 -1.61836e-01  3.02138e+01
3
# CELL(abcABC): 1322.94304  1322.94304  1322.94304    90.00000    90.00000    90.00000  Step:        5800  Bead:       2 positions{angstrom}  cell{angstrom}
       E -1.40791e+01  9.65834e+00 -2.25573e+00
       E -2.51783e+01  4.11057e+01  1.37423e+01
       E -4.50583e+01 -3.33164e+00  3.14349e+01
3
# CELL(abcABC): 1322.94304  1322.94304  1322.94304    90.00000    90.00000    90.00000  Step:        5900  Bead:       2 positions{angstrom}  cell{angstrom}
       E -1.38125e+01 -2.52826e+00 -5.74349e+00
       E -5.86925e+01  1.65476e+01 -1.32412e+01
       E -7.43346e+00 -3.26906e+01 -1.17135e+01
3
# CELL(abcABC): 1322.94304  1322.94304  1322.94304    90.00000    90.00000    90.00000  Step:        6000  Bead:       2 positions{angstrom}  cell{angstrom}
       E  1.65820e+00 -1.01232e+01 -5.32514e+01
       E -3.01743e+00  1.30776e+01 -2.69335e+01
       E  3.01738e+01 -4.68157e+01 -3.56782e+01
3
# CELL(abcABC): 1322.94304  1322.94304  1322.94304    90.00000    90.00000    90.00000  Step:        6100  Bead:       2 positions{angstrom}  cell{angstrom}
       E  3.32254e+01 -1.36321e+01 -7.02601e+01
       E  1.70247e+01 -3.13524e+01 -1.25344e+01
       E -5.22014e-01 -3.04201e+01 -2.21396e+00
3
# CELL(abcABC): 1322.94304  1322.94304  1322.94304    90.00000    90.00000    90.00000  Step:        6200  Bead:       2 positions{angstrom}  cell{angstrom}
       E  6.09657e+01 -1.57041e+01 -9.69768e+01
       E  5.50419e+01 -2.00671e+01  6.66605e-02
       E  8.11402e+00 -1.31964e+01 -1.38355e+01
3
# CELL(abcABC): 1322.94304  1322.94304  1322.94304    90.00000    90.00000    90.00000  Step:        6300  Bead:       2 positions{angstrom}  cell{angstrom}
       E  3.64112e+01 -6.00442e+01 -1.00921e+02
       E  5.66870e+01 -5.74348e+01 -2.37427e+01
       E  7.32382e+00 -3.23758e+01  3.25650e+00
3
# CELL(abcABC): 1322.94304  1322.94304  1322.94304    90.00000    90.00000    90.00000  Step:        6400  Bead:       2 positions{angstrom}  cell{angstrom}
       E  2.48331e+01 -8.25974e+01 -1.07514e+02
       E  5.34053e+01 -4.55232e+01 -1.35615e+01
       E  2.85212e+01 -4.33863e+01  2.11441e+01
3
# CELL(abcABC): 1322.94304  1322.94304  1322.94304    90.00000    90.00000    90.00000  Step:        6500  Bead:       2 positions{angstrom}  cell{angstrom}
       E -1.09997e+01 -1.10070e+02 -1.17148e+02
       E  3.42896e+01 -6.91567e+00 -3.55432e+01
       E  2.35057e+00 -1.37155e+01  1.47796e+01
3
# CELL(abcABC): 1322.94304  1322.94304  1322.94304    90.00000    90.00000    90.00000  Step:        6600  Bead:       2 positions{angstrom}  cell{angstrom}
       E  1.27334e+01 -8.17539e+01 -1.31270e+02
       E  1.06288e+01 -1.99804e+00 -1.25358e+01
       E -2.80387e+01 -4.65844e+01  4.67039e+01
3
# CELL(abcABC): 1322.94304  1322.94304  1322.94304    90.00000    90.00000    90.00000  Step:        6700  Bead:       2 positions{angstrom}  cell{angstrom}
       E  1.79746e+01 -7.88389e+01 -1.25812e+02
       E  4.53064e+01 -2.91781e+01 -3.14977e+01
       E -1.30139e+01  8.96731e+00  1.93848e+01
3
# CELL(abcABC): 1322.94304  1322.94304  1322.94304    90.00000    90.00000    90.00000  Step:        6800  Bead:       2 positions{angstrom}  cell{angstrom}
       E -1.24673e+01 -6.87703e+01 -8.05302e+01
       E  3.47464e+01 -4.81901e+01 -3.96360e+01
       E -1.56043e+01  1.96239e+01  6.16799e+01
3
# CELL(abcABC): 1322.94304  1322.94304  1322.94304    90.00000    90.00000    90.00000  Step:        6900  Bead:       2 positions{angstrom}  cell{angstrom}
       E -3.18796e+01 -6.86816e+01 -6.45344e+01
       E -1.25425e+01  5.59532e+00 -1.46702e+01
       E -6.08055e+00  5.78276e+00  3.01560e+01
3
# CELL(abcABC): 1322.94304  1322.94304  1322.94304    90.00000    90.00000    90.00000  Step:        7000  Bead:       2 positions{angstrom}  cell{angstrom}
       E -2.78386e+01 -5.18586e+01 -4.49552e+01
       E -4.93310e+00  1.06171e+01 -5.37788e+01
       E  1.78569e+01  1.36706e+01  4.58546e+01
3
# CELL(abcABC): 1322.94304  1322.94304  1322.94304    90.00000    90.00000    90.00000  Step:        7100  Bead:       2 positions{angstrom}  cell{angstrom}
       E -1.72893e+01 -9.87564e+00 -3.68095e+01
       E -2.87679e+01  4.91883e+01  2.75298e+01
       E  2.29899e+01  1.17576e+01  2.19632e+01
3
# CELL(abcABC): 1322.94304  1322.94304  1322.94304    90.00000    90.00000    90.00000  Step:        7200  Bead:       2 positions{angstrom}  cell{angstrom}
       E -2.18938e+01 -2.32147e+01 -4.84888e+01
       E -4.17308e+01  3.36016e+01  5.54569e+01
       E  3.22573e+01  6.02639e+01  9.19312e+00
3
# CELL(abcABC): 1322.94304  1322.94304  1322.94304    90.00000    90.00000    90.00000  Step:        7300  Bead:       2 positions{angstrom}  cell{angstrom}
       E -1.01445e+01 -2.96252e+01 -4.90995e+01
       E -4.03840e+01  6.36733e+01  5.31936e+01
       E  4.53130e+01  2.21113e+01 -2.93037e+01
3
# CELL(abcABC): 1322.94304  1322.94304  1322.94304    90.00000    90.00000    90.00000  Step:        7400  Bead:       2 positions{angstrom}  cell{angstrom}
       E  1.72302e+01 -1.45122e+01 -1.09553e+01
       E -2.98993e+01  3.83491e+01  3.43185e+01
       E  5.73915e+01  1.29844e+01 -5.54233e+01
3
# CELL(abcABC): 1322.94304  1322.94304  1322.94304    90.00000    90.00000    90.00000  Step:        7500  Bead:       2 positions{angstrom}  cell{angstrom}
       E -1.33180e+01 -4.25572e+01 -2.87815e+01
       E -3.46592e+01  2.80706e+00  1.62169e+01
       E  6.50508e+01  5.05518e+01 -4.20496e+01
3
# CELL(abcABC): 1322.94304  1322.94304  1322.94304    90.00000    90.00000    90.00000  Step:        7600  Bead:       2 positions{angstrom}  cell{angstrom}
       E -3.09743e+01 -6.81721e+01 -4.61853e+01
       E -9.88007e+00 -4.15644e+01 -5.92563e+00
       E  7.53449e+01  6.06129e+01 -3.80025e+01
3
# CELL(abcABC): 1322.94304  1322.94304  1322.94304    90.00000    90.00000    90.00000  Step:        7700  Bead:       2 positions{angstrom}  cell{angstrom}
       E  6.41127e-01 -6.48473e+01 -2.00012e+01
       E -4.52547e+00 -4.96216e+01 -8.47808e+00
       E  4.56169e+01 -1.69692e+00 -1.14337e+01
3
# CELL(abcABC): 1322.94304  1322.94304  1322.94304    90.00000    90.00000    90.00000  Step:        7800  Bead:       2 positions{angstrom}  cell{angstrom}
       E  1.40460e+01 -2.89254e+01 -3.18524e+01
       E  9.69297e+00 -5.53670e+01 -3.03920e+01
       E  4.22935e+01  5.68090e+00 -5.41246e+01
3
# CELL(abcABC): 1322.94304  1322.94304  1322.94304    90.00000    90.00000    90.00000  Step:        7900  Bead:       2 positions{angstrom}  cell{angstrom}
       E  1.41371e+01  1.03795e+01 -2.87685e+01
       E  4.58965e+01 -1.36294e+01 -3.80186e+01
       E  5.95923e+01  2.00111e+01 -4.28242e+01
3
# CELL(abcABC): 1322.94304  1322.94304  1322.94304    90.00000    90.00000    90.00000  Step:        8000  Bead:       2 positions{angstrom}  cell{angstrom}
       E  3.13988e+01  2.99020e+01 -1.33294e+01
       E  4.40760e+01 -4.18885e+01 -4.67552e+01
       E  5.40123e+01  3.96152e+01 -3.12716e+01
3
# CELL(abcABC): 1322.94304  1322.94304  1322.94304    90.00000    90.00000    90.00000  Step:        8100  Bead:       2 positions{angstrom}  cell{angstrom}
       E  1.26169e+01  3.50610e+01 -1.86413e+00
       E  1.97446e+01 -2.49625e+00 -1.58714e+01
       E -1.65241e+01 -3.85287e+01 -3.21255e+00
3
# CELL(abcABC): 1322.94304  1322.94304  1322.94304    90.00000    90.00000    90.00000  Step:        8200  Bead:       2 positions{angstrom}  cell{angstrom}
       E  3.74949e+01  1.80789e+01 -2.65972e+01
       E  2.13278e+01  4.84922e+01 -1.40879e+01
       E  3.70622e+01 -2.79775e+01 -1.65292e+00
3
# CELL(abcABC): 1322.94304  1322.94304  1322.94304    90.00000    90.00000    90.00000  Step:        8300  Bead:       2 positions{angstrom}  cell{angstrom}
       E  3.80352e+01  8.39010e+00 -2.61697e+01
       E  3.79299e+01  5.53127e+00  2.60374e+01
       E  1.83964e+01 -1.36975e+01 -4.10637e+00
3
# CELL(abcABC): 1322.94304  1322.94304  1322.94304    90.00000    90.00000    90.00000  Step:        8400  Bead:       2 positions{angstrom}  cell{angstrom}
       E  5.15684e+01  8.06092e+00  1.11900e+01
       E  2.78308e+01  4.20130e+01  4.18108e+01
       E  2.37126e+01  8.50824e+00  3.00273e+01
3
# CELL(abcABC): 1322.94304  1322.94304  1322.94304    90.00000    90.00000    90.00000  Step:        8500  Bead:       2 positions{angstrom}  cell{angstrom}
       E  3.03618e+00 -6.35998e+00  1.00558e+01
       E  3.32885e+01  3.02345e+01  2.17543e+01
       E  4.36561e+01 -7.90202e+00  2.18751e+01
3
# CELL(abcABC): 1322.94304  1322.94304  1322.94304    90.00000    90.00000    90.00000  Step:        8600  Bead:       2 positions{angstrom}  cell{angstrom}
       E -3.37784e+01 -8.64153e+00 -1.20847e+00
       E  4.92231e+01 -9.38365e-01 -2.17084e+01
       E  5.41491e+01 -1.22586e+01  4.26151e+01
3
# CELL(abcABC): 1322.94304  1322.94304  1322.94304    90.00000    90.00000    90.00000  Step:        8700  Bead:       2 positions{angstrom}  cell{angstrom}
       E -2.90108e+01  2.48287e+01 -1.99571e+01
       E  1.82996e+01 -1.89866e+01 -1.55104e+01
       E  3.65544e+01 -4.67963e+01  3.45982e+01
3
# CELL(abcABC): 1322.94304  1322.94304  1322.94304    90.00000    90.00000    90.00000  Step:        8800  Bead:       2 positions{angstrom}  cell{angstrom}
       E -1.40564e+01  4.18701e+01 -4.83170e+00
       E -6.38739e+00 -2.67876e+01  2.09667e+00
       E  5.92588e+01 -7.34204e+01  6.76107e+01
3
# CELL(abcABC): 1322.94304  1322.94304  1322.94304    90.00000    90.00000    90.00000  Step:        8900  Bead:       2 positions{angstrom}  cell{angstrom}
       E -2.10948e+01  3.67537e+01  1.53031e+00
       E -2.80593e+01 -2.95706e+01  3.00681e+01
       E  1.78630e+01 -6.57588e+01  6.20388e+00
3
# CELL(abcABC): 1322.94304  1322.94304  1322.94304    90.00000    90.00000    90.00000  Step:        9000  Bead:       2 positions{angstrom}  cell{angstrom}
       E -1.02821e+01  4.47346e+01  1.05944e+01
       E -5.13481e+01 -3.31142e+01  2.65592e+01
       E -5.21574e+00 -6.78468e+01 -1.34674e+01
3
# CELL(abcABC): 1322.94304  1322.94304  1322.94304    90.00000    90.00000    90.00000  Step:        9100  Bead:       2 positions{angstrom}  cell{angstrom}
       E  2.85212e+01  4.35437e+01  2.14476e+01
       E -5.27698e+01  1.04193e+01  1.53465e+01
       E -1.38177e+01 -5.97538e+01 -1.47102e+01
3
# CELL(abcABC): 1322.94304  1322.94304  1322.94304    90.00000    90.00000    90.00000  Step:        9200  Bead:       2 positions{angstrom}  cell{angstrom}
       E -1.74651e+01  3.42873e+01  4.28365e-01
       E  6.95069e+00 -1.24280e+01  4.63444e+01
       E  2.29135e+01 -3.68958e+01 -3.05693e+01
3
# CELL(abcABC): 1322.94304  1322.94304  1322.94304    90.00000    90.00000    90.00000  Step:        9300  Bead:       2 positions{angstrom}  cell{angstrom}
       E  4.17869e+01  5.03935e+01 -4.10210e+01
       E  2.99383e+01 -5.16604e+01  2.56702e+01
       E  4.13861e+01 -2.78563e+01  2.06934e+01
3
# CELL(abcABC): 1322.94304  1322.94304  1322.94304    90.00000    90.00000    90.00000  Step:        9400  Bead:       2 positions{angstrom}  cell{angstrom}
       E  2.47963e+01  4.93034e+01 -2.54696e+01
       E  3.49961e+01 -4.76695e+01 -3.38940e+00
       E  2.95795e+00 -7.55832e+00  2.31844e+01
3
# CELL(abcABC): 1322.94304  1322.94304  1322.94304    90.00000    90.00000    90.00000  Step:        9500  Bead:       2 positions{angstrom}  cell{angstrom}
       E  4.99045e+00  4.14504e+00 -2.75868e+01
       E  3.44248e+01  6.07255e+00  2.80380e+01
       E -7.67516e+00 -1.83931e+01  2.30087e+01
3
# CELL(abcABC): 1322.94304  1322.94304  1322.94304    90.00000    90.00000    90.00000  Step:        9600  Bead:       2 positions{angstrom}  cell{angstrom}
       E -2.18133e+01  1.26147e+01 -5.42573e+01
       E  5.60135e+01 -3.29275e+01  3.59872e+01
       E -2.32439e+01 -3.60236e+01 -1.11112e+01
3
# CELL(abcABC): 1322.94304  1322.94304  1322.94304    90.00000    90.00000    90.00000  Step:        9700  Bead:       2 positions{angstrom}  cell{angstrom}
       E -5.65265e+01 -2.53985e+00 -7.03246e+01
       E  2.96321e+01 -8.19957e+01 -4.90741e+00
       E -4.55798e+01 -3.20726e+01 -1.14297e+01
3
# CELL(abcABC): 1322.94304  1322.94304  1322.94304    90.00000    90.00000    90.00000  Step:        9800  Bead:       2 positions{angstrom}  cell{angstrom}
       E -5.48561e+01 -6.67823e+01 -7.26221e+01
       E  4.71074e+01 -9.46360e+01 -7.13730e+00
       E  1.13229e+00 -1.86569e+01  5.20885e+01
3