3
# CELL(abcABC): 1322.94304  1322.94304  1322.94304    90.00000    90.00000    90.00000  Step:           0  Bead:      27 positions{angstrom}  cell{angstrom}
       E  0.00000e+00  0.00000e+00  0.00000e+00
       E  0.00000e+00  0.00000e+00  0.00000e+00
       E  0.00000e+00  0.00000e+00  0.00000e+00
3
# CELL(abcABC): 1322.94304  1322.94304  1322.94304    90.00000    90.00000    90.00000  Step:         100  Bead:      27 positions{angstrom}  cell{angstrom}
       E  6.33112e+00 -2.36852e+01  2.87304e+00
       E  7.18930e+00 -2.91822e+01  5.98976e+00
       E  2.14875e+01 -3.89750e+00 -1.12388e+01
3
# CELL(abcABC): 1322.94304  1322.94304  1322.94304    90.00000    90.00000    90.00000  Step:         200  Bead:      27 positions{angstrom}  cell{angstrom}
       E -1.26100e+01 -3.44716e+00  3.97216e+01
       E -1.11266e+01 -3.06008e+01  1.53733e+01
       E  3.59055e+01  8.84331e-01  8.01769e+00
3
# CELL(abcABC): 1322.94304  1322.94304  1322.94304    90.00000    90.00000    90.00000  Step:         300  Bead:      27 positions{angstrom}  cell{angstrom}
       E  5.97918e+00 -9.78601e+00  6.33925e-01
       E  2.54193e+01 -4.35574e+01  1.28834e+01
       E  3.03540e+01  1.15876e+01  5.05645e+00
3
# CELL(abcABC): 1322.94304  1322.94304  1322.94304    90.00000    90.00000    90.00000  Step:         400  Bead:      27 positions{angstrom}  cell{angstrom}
       E  7.51256e+00 -1.66510e+00 -3.49302e+01
       E -5.41025e+00 -2.10436e+01 -1.53700e+01
       E  2.63396e+01  1.59894e+01  4.53897e+00
3
# CELL(abcABC): 1322.94304  1322.94304  1322.94304    90.00000    90.00000    90.00000  Step:         500  Bead:      27 positions{angstrom}  cell{angstrom}
       E  3.88440e+01 -1.93768e+01 -4.71281e+01
       E  2.59713e+01  5.20886e+00  2.29911e+01
       E  1.76606e+01 -9.14411e+00  3.34896e+01
3
# CELL(abcABC): 1322.94304  1322.94304  1322.94304    90.00000    90.00000    90.00000  Step:         600  Bead:      27 positions{angstrom}  cell{angstrom}
       E  3.76884e+01 -1.13363e+01  3.78762e-01
       E -9.96292e+00 -2.18870e+01  5.79595e+01
       E  2.22889e+01  1.81065e+01  4.91134e+01
3
# CELL(abcABC): 1322.94304  1322.94304  1322.94304    90.00000    90.00000    90.00000  Step:         700  Bead:      27 positions{angstrom}  cell{angstrom}
       E  2.31525e+01  3.67925e+00 -3.89587e+01
       E -4.74462e+01 -1.12282e+01  4.50301e+01
       E -2.06478e+01  3.78889e+01  6.83755e+01
3
# CELL(abcABC): 1322.94304  1322.94304  1322.94304    90.00000    90.00000    90.00000  Step:         800  Bead:      27 positions{angstrom}  cell{angstrom}
       E  5.73844e+01  4.58662e+00 -4.40769e+01
       E  1.04634e+01 -2.33455e+01  5.35379e+01
       E -5.04610e+01  3.51083e+01  6.67549e+01
3
# CELL(abcABC): 1322.94304  1322.94304  1322.94304    90.00000    90.00000    90.00000  Step:         900  Bead:      27 positions{angstrom}  cell{angstrom}
       E  2.52774e+01  3.95753e+00 -3.60623e+01
       E  5.48217e+00  2.89894e+00  8.46458e+00
       E -3.11292e+01  1.72807e+01  1.12485e+02
3
# CELL(abcABC): 1322.94304  1322.94304  1322.94304    90.00000    90.00000    90.00000  Step:        1000  Bead:      27 positions{angstrom}  cell{angstrom}
       E  2.76380e+01  3.62717e+01 -2.24845e+01
       E  5.66123e+00  1.11953e+01 -1.92795e+01
       E -1.54962e+01  9.59622e+00  8.70883e+01
3
# CELL(abcABC): 1322.94304  1322.94304  1322.94304    90.00000    90.00000    90.00000  Step:        1100  Bead:      27 positions{angstrom}  cell{angstrom}
       E  2.61317e+01  4.42376e+00 -1.71213e+01
       E  1.26345e+01  2.53264e+01 -2.36966e+01
       E  8.60448e+00  7.50357e+00  5.06965e+01
3
# CELL(abcABC): 1322.94304  1322.94304  1322.94304    90.00000    90.00000    90.00000  Step:        1200  Bead:      27 positions{angstrom}  cell{angstrom}
       E -5.95710e+00 -1.50527e+01 -1.87743e+01
       E  1.67950e+01  2.44246e+01 -6.65783e+01
       E  4.72753e+00  8.33975e+01  3.18087e+01
3
# CELL(abcABC): 1322.94304  1322.94304  1322.94304    90.00000    90.00000    90.00000  Step:        1300  Bead:      27 positions{angstrom}  cell{angstrom}
       E -4.85291e+00  1.61333e+01 -3.58500e+01
       E  5.04428e+00  8.20606e+00 -8.78193e+01
       E -1.99749e+01  6.57248e+01  5.52673e+00
3
# CELL(abcABC): 1322.94304  1322.94304  1322.94304    90.00000    90.00000    90.00000  Step:        1400  Bead:      27 positions{angstrom}  cell{angstrom}
       E  2.46567e+00  4.66403e+01 -7.56985e+01
       E -1.09594e+01 -3.65950e+01 -8.04131e+01
       E -1.51961e+01  3.53723e+01  3.06908e+01
3
# CELL(abcABC): 1322.94304  1322.94304  1322.94304    90.00000    90.00000    90.00000  Step:        1500  Bead:      27 positions{angstrom}  cell{angstrom}
       E -1.84630e+01  6.69223e+01 -7.14837e+01
       E -1.31044e+01  1.21612e+01 -4.45325e+01
       E  1.17738e+01  3.70642e+01  3.77790e+01
3
# CELL(abcABC): 1322.94304  1322.94304  1322.94304    90.00000    90.00000    90.00000  Step:        1600  Bead:      27 positions{angstrom}  cell{angstrom}
       E -8.58889e+00  5.06970e+01 -8.42622e+01
       E -6.78472e+00  8.22411e+00  1.11876e+01
       E -1.81448e+01  1.94507e+01  1.67401e+01
3
# CELL(abcABC): 1322.94304  1322.94304  1322.94304    90.00000    90.00000    90.00000  Step:        1700  Bead:      27 positions{angstrom}  cell{angstrom}
       E -5.04546e+01  4.45259e+01 -2.70628e+01
       E -1.38280e+01  1.21538e+01  1.83504e+01
       E -2.33450e+01  2.00688e+01  2.57704e+00
3
# CELL(abcABC): 1322.94304  1322.94304  1322.94304    90.00000    90.00000    90.00000  Step:        1800  Bead:      27 positions{angstrom}  cell{angstrom}
       E -1.71281e+01  2.18587e+01  2.93728e+01
       E -5.55141e+01  1.74483e+01 -2.30065e-01
       E -5.19022e+01  4.90813e+01 -1.23976e+01
3
# CELL(abcABC): 1322.94304  1322.94304  1322.94304    90.00000    90.00000    90.00000  Step:        1900  Bead:      27 positions{angstrom}  cell{angstrom}
       E -2.13595e+01  4.24263e+01  2.27741e+01
       E -5.15645e+01  4.45582e+01  1.23000e+00
       E -5.08853e+01  3.15497e+01  2.09419e+01
3
# CELL(abcABC): 1322.94304  1322.94304  1322.94304    90.00000    90.00000    90.00000  Step:        2000  Bead:      27 positions{angstrom}  cell{angstrom}
       E -1.21556e+01 -2.39671e+01  4.06963e+01
       E -2.15879e+01 -4.25449e+00 -5.52836e-01
       E -8.10535e+01  6.57222e+01 -4.49173e+00
3
# CELL(abcABC): 1322.94304  1322.94304  1322.94304    90.00000    90.00000    90.00000  Step:        2100  Bead:      27 positions{angstrom}  cell{angstrom}
       E -2.55121e-01 -4.70730e+01  8.62564e+00
       E -3.10504e+01 -1.23682e+01  1.32944e+01
       E -4.74975e+01  8.47225e+01 -3.28952e+01
3
# CELL(abcABC): 1322.94304  1322.94304  1322.94304    90.00000    90.00000    90.00000  Step:        2200  Bead:      27 positions{angstrom}  cell{angstrom}
       E -1.87815e+01 -5.60864e+01 -1.24152e+00
       E -2.42842e+01  2.69941e+01  1.34909e+01
       E -2.73905e+01  4.57833e+01 -1.07766e+01
3
# CELL(abcABC): 1322.94304  1322.94304  1322.94304    90.00000    90.00000    90.00000  Step:        2300  Bead:      27 positions{angstrom}  cell{angstrom}
       E  4.11757e+00 -7.57838e+01 -5.81055e+00
       E -1.42136e+01  1.10595e+01  4.85066e+00
       E -5.55710e+01  4.72174e+01 -2.02669e+01
3
# CELL(abcABC): 1322.94304  1322.94304  1322.94304    90.00000    90.00000    90.00000  Step:        2400  Bead:      27 positions{angstrom}  cell{angstrom}
       E -4.12595e+01 -4.94078e+01  4.75614e+00
       E -3.97520e+01  2.57165e+00 -2.79416e+01
       E -3.10692e+01  2.78351e+01 -2.83526e+01
3
# CELL(abcABC): 1322.94304  1322.94304  1322.94304    90.00000    90.00000    90.00000  Step:        2500  Bead:      27 positions{angstrom}  cell{angstrom}
       E -3.44378e+01 -4.02448e+01  2.69200e+01
       E -3.36622e+01 -4.99784e+01 -1.98971e+01
       E  8.55892e+00  1.05312e+01  5.83616e+01
3
# CELL(abcABC): 1322.94304  1322.94304  1322.94304    90.00000    90.00000    90.00000  Step:        2600  Bead:      27 positions{angstrom}  cell{angstrom}
       E -4.53252e+01 -1.18784e+01  5.72884e+01
       E -4.89568e+01 -5.07020e+01 -1.66008e+01
       E  4.69403e+00 -2.81053e+01  8.18959e+01
3
# CELL(abcABC): 1322.94304  1322.94304  1322.94304    90.00000    90.00000    90.00000  Step:        2700  Bead:      27 positions{angstrom}  cell{angstrom}
       E -3.24131e+01 -6.86311e+01  1.03260e+02
       E -5.63433e+01 -4.11550e+01 -2.43263e+01
       E  5.85816e+00 -1.83073e+01  8.36978e+01
3
# CELL(abcABC): 1322.94304  1322.94304  1322.94304    90.00000    90.00000    90.00000  Step:        2800  Bead:      27 positions{angstrom}  cell{angstrom}
       E -5.45850e+01 -5.38015e+01  8.90894e+01
       E -5.72786e+01 -1.64072e+01 -9.54908e+00
       E  1.98853e+01 -1.71288e+01  3.00860e+01
3
# CELL(abcABC): 1322.94304  1322.94304  1322.94304    90.00000    90.00000    90.00000  Step:        2900  Bead:      27 positions{angstrom}  cell{angstrom}
       E -4.76281e+01 -6.70247e+01  5.88822e+01
       E -6.33363e+01 -2.45431e+01  1.60192e+01
       E  2.82356e+01 -3.98178e+01  3.75785e+01
3
# CELL(abcABC): 1322.94304  1322.94304  1322.94304    90.00000    90.00000    90.00000  Step:        3000  Bead:      27 positions{angstrom}  cell{angstrom}
       E -7.92539e+01 -5.09838e+01  2.98760e+01
       E -7.59835e+01 -6.32702e+01  3.70030e+00
       E  4.52406e+01  1.73589e+00  3.82346e+01
3
# CELL(abcABC): 1322.94304  1322.94304  1322.94304    90.00000    90.00000    90.00000  Step:        3100  Bead:      27 positions{angstrom}  cell{angstrom}
       E -9.17397e+01 -5.70978e+01  1.03823e+01
       E -7.03664e+01 -7.00720e+01  7.61190e+01
       E  6.47901e+01  5.25533e+01  1.26830e+01
3
# CELL(abcABC): 1322.94304  1322.94304  1322.94304    90.00000    90.00000    90.00000  Step:        3200  Bead:      27 positions{angstrom}  cell{angstrom}
       E -8.72424e+01 -6.12944e+01  4.49265e+01
       E -6.97068e+01 -2.32955e+01  7.19522e+01
       E  4.77606e+01  6.02110e+01  1.80152e+01
3
# CELL(abcABC): 1322.94304  1322.94304  1322.94304    90.00000    90.00000    90.00000  Step:        3300  Bead:      27 positions{angstrom}  cell{angstrom}
       E -1.01591e+02  2.22719e+01  5.58586e+01
       E -8.59114e+01 -3.47870e+00  6.48353e+01
       E  6.00777e+01  9.33047e+01  1.79389e+01
3
# CELL(abcABC): 1322.94304  1322.94304  1322.94304    90.00000    90.00000    90.00000  Step:        3400  Bead:      27 positions{angstrom}  cell{angstrom}
       E -1.21245e+02  3.60899e+01  1.02447e+02
       E -4.66245e+01 -3.72156e+01  1.31677e+01
       E  3.79311e+01  7.22540e+01  3.83779e+01
3
# CELL(abcABC): 1322.94304  1322.94304  1322.94304    90.00000    90.00000    90.00000  Step:        3500  Bead:      27 positions{angstrom}  cell{angstrom}
       E -1.00961e+02 -6.98579e+00  8.54720e+01
       E -5.89188e+01 -6.14648e+01  5.14926e+01
       E  1.33099e+01  6.20677e+01  4.23716e+01
3
# CELL(abcABC): 1322.94304  1322.94304  1322.94304    90.00000    90.00000    90.00000  Step:        3600  Bead:      27 positions{angstrom}  cell{angstrom}
       E -9.94770e+01 -5.40908e+01  1.73447e+01
       E -1.65202e+01 -9.84102e+00  7.18577e+01
       E -6.23980e+01  2.57588e+01  1.13392e+01
3
# CELL(abcABC): 1322.94304  1322.94304  1322.94304    90.00000    90.00000    90.00000  Step:        3700  Bead:      27 positions{angstrom}  cell{angstrom}
       E -1.05837e+02 -4.93693e+01  3.67592e+00
       E  9.13389e+00 -5.33543e+01  1.46346e+01
       E -7.10174e+01 -1.71414e+01  1.08197e+01
3
# CELL(abcABC): 1322.94304  1322.94304  1322.94304    90.00000    90.00000    90.00000  Step:        3800  Bead:      27 positions{angstrom}  cell{angstrom}
       E -7.12119e+01 -1.51437e+00  2.53321e+01
       E  1.66150e+01 -5.14653e+01  6.67293e+00
       E -1.59103e+01 -3.32934e+01  1.91375e+01
3
# CELL(abcABC): 1322.94304  1322.94304  1322.94304    90.00000    90.00000    90.00000  Step:        3900  Bead:      27 positions{angstrom}  cell{angstrom}
       E -7.43673e+01 -8.33731e+00 -1.30086e+01
       E -1.58998e+01 -4.12544e+01  2.44001e+01
       E  3.68641e-01 -3.32557e+01  2.90341e+01
3
# CELL(abcABC): 1322.94304  1322.94304  1322.94304    90.00000    90.00000    90.00000  Step:        4000  Bead:      27 positions{angstrom}  cell{angstrom}
       E -7.23417e+01  1.09982e+01 -1.83780e+01
       E -5.36969e+01 -2.46639e+01  9.09364e+00
       E  2.41953e+00 -2.53451e+01 -2.54124e+01
3
# CELL(abcABC): 1322.94304  1322.94304  1322.94304    90.00000    90.00000    90.00000  Step:        4100  Bead:      27 positions{angstrom}  cell{angstrom}
       E -9.42144e+01  2.17517e+00 -6.15633e+01
       E -7.34072e+01  9.39727e+00  1.36024e+01
       E -3.05310e+00 -3.99277e+01  1.59666e+01
3
# CELL(abcABC): 1322.94304  1322.94304  1322.94304    90.00000    90.00000    90.00000  Step:        4200  Bead:      27 positions{angstrom}  cell{angstrom}
       E -1.05701e+02  1.73101e+01 -9.44411e+01
       E -5.02389e+01  1.36781e+01 -1.78995e+01
       E -1.68512e+01 -1.17327e+01  1.12004e-01
3
# CELL(abcABC): 1322.94304  1322.94304  1322.94304    90.00000    90.00000    90.00000  Step:        4300  Bead:      27 positions{angstrom}  cell{angstrom}
       E -5.13450e+01  2.81866e+01 -9.43729e+01
       E -3.41234e+01  4.51766e+01 -2.53673e+01
       E  2.23398e+01 -2.65174e+01  4.04437e+00
3
# CELL(abcABC): 1322.94304  1322.94304  1322.94304    90.00000    90.00000    90.00000  Step:        4400  Bead:      27 positions{angstrom}  cell{angstrom}
       E -3.01948e+01  3.27353e+01 -8.25305e+01
       E -6.22231e+01  3.74066e+01 -1.37749e+01
       E  2.60333e+01 -3.02812e+01  2.51697e+01
3
# CELL(abcABC): 1322.94304  1322.94304  1322.94304    90.00000    90.00000    90.00000  Step:        4500  Bead:      27 positions{angstrom}  cell{angstrom}
       E -5.74278e+01  1.76355e+01 -7.76940e+01
       E -6.07093e+01  4.40743e+01  1.34809e+01
       E  7.89767e+00 -6.37326e+01  5.06366e+00
3
# CELL(abcABC): 1322.94304  1322.94304  1322.94304    90.00000    90.00000    90.00000  Step:        4600  Bead:      27 positions{angstrom}  cell{angstrom}
       E -5.63022e+01  4.60405e+01 -7.68554e+01
       E -6.25676e+01  4.94292e+01  2.48777e+01
       E -4.27230e+00 -4.88457e+01  2.31464e+01
3
# CELL(abcABC): 1322.94304  1322.94304  1322.94304    90.00000    90.00000    90.00000  Step:        4700  Bead:      27 positions{angstrom}  cell{angstrom}
       E -5.14164e+01  4.00625e+01 -9.07394e+01
       E -5.41302e+01  2.50795e+01 -1.63876e+01
       E  8.45277e+00 -6.95539e+01  2.95388e+01
3
# CELL(abcABC): 1322.94304  1322.94304  1322.94304    90.00000    90.00000    90.00000  Step:        4800  Bead:      27 positions{angstrom}  cell{angstrom}
       E -2.64609e+01  8.10020e+01 -1.17501e+02
       E -5.57796e+01  4.85551e+00 -2.51908e+01
       E -1.23330e+01 -4.74036e+01  8.28359e+00
3
# CELL(abcABC): 1322.94304  1322.94304  1322.94304    90.00000    90.00000    90.00000  Step:        4900  Bead:      27 positions{angstrom}  cell{angstrom}
       E  2.16067e+01  5.70035e+01 -4.24503e+01
       E -5.98272e+01 -1.47968e+01 -4.39081e+01
       E  2.77972e+01 -7.17389e+01  3.18460e+00
3
# CELL(abcABC): 1322.94304  1322.94304  1322.94304    90.00000    90.00000    90.00000  Step:        5000  Bead:      27 positions{angstrom}  cell{angstrom}
       E  8.35944e+01  5.51741e+01 -2.11794e+01
       E -4.33455e+01 -8.44490e+00 -1.88106e+01
       E -3.96912e+00 -4.57378e+01 -1.20819e+01
3
# CELL(abcABC): 1322.94304  1322.94304  1322.94304    90.00000    90.00000    90.00000  Step:        5100  Bead:      27 positions{angstrom}  cell{angstrom}
       E  7.20815e+01  4.93287e+01  2.22032e+01
       E -3.89513e+01  7.26538e+00 -7.97245e+00
       E  8.36704e+00 -9.18407e-01 -4.86283e+00
3
# CELL(abcABC): 1322.94304  1322.94304  1322.94304    90.00000    90.00000    90.00000  Step:        5200  Bead:      27 positions{angstrom}  cell{angstrom}
       E  2.39657e+01  1.82919e+01  1.00712e+01
       E -3.53347e+01  3.25439e+01 -1.82910e+01
       E  1.26439e+01  1.14132e+01 -1.14279e+01
3
# CELL(abcABC): 1322.94304  1322.94304  1322.94304    90.00000    90.00000    90.00000  Step:        5300  Bead:      27 positions{angstrom}  cell{angstrom}
       E  3.35744e+01 -3.64193e+01 -1.01930e+01
       E -4.14004e+01  1.62590e+01 -2.50661e+01
       E -4.49775e+01  2.93594e+01  4.69842e+01
3
# CELL(abcABC): 1322.94304  1322.94304  1322.94304    90.00000    90.00000    90.00000  Step:        5400  Bead:      27 positions{angstrom}  cell{angstrom}
       E  4.04012e+01 -1.09811e+01 -5.00341e+00
       E -4.85684e+01  4.17854e+01 -3.33798e+00
       E -3.39609e+01  5.96575e+01  2.42014e+01
3
# CELL(abcABC): 1322.94304  1322.94304  1322.94304    90.00000    90.00000    90.00000  Step:        5500  Bead:      27 positions{angstrom}  cell{angstrom}
       E  3.67679e+01  6.04532e+00  4.38294e+00
       E -2.78502e+01  4.61257e+00 -2.06684e+00
       E -2.07738e+01  6.89239e+01 -2.46097e+01
3
# CELL(abcABC): 1322.94304  1322.94304  1322.94304    90.00000    90.00000    90.00000  Step:        5600  Bead:      27 positions{angstrom}  cell{angstrom}
       E  2.62529e+01  1.36552e+01 -3.93483e+01
       E -4.81846e+00  1.32646e+01  1.01435e+01
       E -3.11251e+01  2.65765e+01  8.56168e+00
3
# CELL(abcABC): 1322.94304  1322.94304  1322.94304    90.00000    90.00000    90.00000  Step:        5700  Bead:      27 positions{angstrom}  cell{angstrom}
       E  3.65236e+01  5.40653e+00 -3.19113e+01
       E -6.76725e+00  2.67076e+00 -6.14344e+00
       E -3.73132e+01  6.40415e+00  2.19581e+01
3
# CELL(abcABC): 1322.94304  1322.94304  1322.94304    90.00000    90.00000    90.00000  Step:        5800  Bead:      27 positions{angstrom}  cell{angstrom}
       E  3.71484e+01  1.27495e+01 -3.40341e+01
       E -1.24961e+01 -1.69878e+01 -2.42190e+01
       E -2.03649e+01 -5.70716e+01 -1.42617e+01
3
# CELL(abcABC): 1322.94304  1322.94304  1322.94304    90.00000    90.00000    90.00000  Step:        5900  Bead:      27 positions{angstrom}  cell{angstrom}
       E  1.52862e+01  1.30191e+01  5.24117e+00
       E -3.26071e+00  3.55308e+01 -2.18774e+01
       E  2.07488e+01 -5.71830e+01  1.34703e+01
3
# CELL(abcABC): 1322.94304  1322.94304  1322.94304    90.00000    90.00000    90.00000  Step:        6000  Bead:      27 positions{angstrom}  cell{angstrom}
       E -6.90056e-01 -4.56701e+01  5.27103e+00
       E  6.18377e+00  2.40029e+01 -5.96640e+01
       E -4.95230e+00 -3.91723e+01 -7.27097e+00
3
# CELL(abcABC): 1322.94304  1322.94304  1322.94304    90.00000    90.00000    90.00000  Step:        6100  Bead:      27 positions{angstrom}  cell{angstrom}
       E  1.65620e+01 -6.03472e+01 -3.71675e+01
       E  3.40786e+01 -3.57774e+01 -4.69297e+01
       E  2.08333e+01 -2.21949e+01  2.20216e+00
3
# CELL(abcABC): 1322.94304  1322.94304  1322.94304    90.00000    90.00000    90.00000  Step:        6200  Bead:      27 positions{angstrom}  cell{angstrom}
       E  9.78762e+00 -4.49898e+01 -6.49010e+01
       E  5.72304e+01  1.49383e+00  1.61037e+00
       E -1.08584e+01 -5.34287e+01  3.06087e+01
3
# CELL(abcABC): 1322.94304  1322.94304  1322.94304    90.00000    90.00000    90.00000  Step:        6300  Bead:      27 positions{angstrom}  cell{angstrom}
       E  3.05539e+01 -6.26770e+01 -9.72577e+01
       E  7.38401e+01 -1.96449e+01 -2.91189e+00
       E -7.59811e+00 -5.80922e+01  2.99877e+01
3
# CELL(abcABC): 1322.94304  1322.94304  1322.94304    90.00000    90.00000    90.00000  Step:        6400  Bead:      27 positions{angstrom}  cell{angstrom}
       E  6.41671e+01 -6.51255e+01 -1.18967e+02
       E  3.07571e+01 -3.26459e+01 -4.35668e+01
       E -1.49057e+00 -3.59613e+01  1.78708e+01
3
# CELL(abcABC): 1322.94304  1322.94304  1322.94304    90.00000    90.00000    90.00000  Step:        6500  Bead:      27 positions{angstrom}  cell{angstrom}
       E  4.20472e+01 -9.03507e+01 -1.04400e+02
       E  1.53018e+01  1.88465e+00 -4.59169e+01
       E -4.96609e+00  1.73800e+01 -6.31694e+00
3
# CELL(abcABC): 1322.94304  1322.94304  1322.94304    90.00000    90.00000    90.00000  Step:        6600  Bead:      27 positions{angstrom}  cell{angstrom}
       E  1.09756e+01 -1.14263e+02 -1.03031e+02
       E  1.59672e+01  3.81323e+00 -3.63652e+01
       E -2.19940e+01 -8.84053e-01  3.74093e+00
3
# CELL(abcABC): 1322.94304  1322.94304  1322.94304    90.00000    90.00000    90.00000  Step:        6700  Bead:      27 positions{angstrom}  cell{angstrom}
       E  3.75058e+01 -1.05845e+02 -1.15165e+02
       E  4.33690e+01  2.02004e+00 -3.58969e+01
       E -2.66954e+01 -1.81267e+01  2.35871e+01
3
# CELL(abcABC): 1322.94304  1322.94304  1322.94304    90.00000    90.00000    90.00000  Step:        6800  Bead:      27 positions{angstrom}  cell{angstrom}
       E  3.38640e+01 -1.05669e+02 -1.00130e+02
       E  7.68347e-01 -1.42016e+01 -2.84223e+01
       E -2.02142e+01 -4.65937e+01  4.61161e+01
3
# CELL(abcABC): 1322.94304  1322.94304  1322.94304    90.00000    90.00000    90.00000  Step:        6900  Bead:      27 positions{angstrom}  cell{angstrom}
       E  2.80087e+01 -1.03306e+02 -3.60662e+01
       E  4.72674e+01 -1.45520e+01 -2.42298e+01
       E  7.25117e+00 -2.73764e+01  1.42050e+01
3
# CELL(abcABC): 1322.94304  1322.94304  1322.94304    90.00000    90.00000    90.00000  Step:        7000  Bead:      27 positions{angstrom}  cell{angstrom}
       E  3.97573e+01 -4.52112e+01 -3.01239e+01
       E  1.76496e+01  2.31788e+01 -3.31013e+01
       E  3.23717e+01  1.37616e+01 -1.40639e-01
3
# CELL(abcABC): 1322.94304  1322.94304  1322.94304    90.00000    90.00000    90.00000  Step:        7100  Bead:      27 positions{angstrom}  cell{angstrom}
       E -1.01907e+01 -4.29625e+01 -3.51253e+01
       E  9.52428e+00  6.74780e+01  1.63808e+01
       E  4.48604e+01 -1.09533e+01 -1.40667e+01
3
# CELL(abcABC): 1322.94304  1322.94304  1322.94304    90.00000    90.00000    90.00000  Step:        7200  Bead:      27 positions{angstrom}  cell{angstrom}
       E -2.96098e+01 -1.91357e+01 -7.12948e+01
       E -2.34423e+01  2.74864e+01  2.73160e+01
       E  4.93571e+01  4.20753e+01 -2.75859e+01
3
# CELL(abcABC): 1322.94304  1322.94304  1322.94304    90.00000    90.00000    90.00000  Step:        7300  Bead:      27 positions{angstrom}  cell{angstrom}
       E  4.69783e+01 -1.48865e+01 -5.55034e+01
       E -5.40520e+01  2.35386e+01  2.09079e+01
       E  4.68784e+01  5.92909e+01 -6.10518e+00
3
# CELL(abcABC): 1322.94304  1322.94304  1322.94304    90.00000    90.00000    90.00000  Step:        7400  Bead:      27 positions{angstrom}  cell{angstrom}
       E  8.80270e+00 -2.27225e+01 -3.48768e+01
       E -3.11486e+01  1.15420e+01 -2.60297e+01
       E  6.02534e+01  4.55597e+01  7.40141e+00
3
# CELL(abcABC): 1322.94304  1322.94304  1322.94304    90.00000    90.00000    90.00000  Step:        7500  Bead:      27 positions{angstrom}  cell{angstrom}
       E -1.61948e+01 -4.31778e+01 -3.10501e+01
       E -7.17690e+00 -1.31893e+01  8.36189e+00
       E  2.86842e+01  5.57055e+01 -2.78958e+00
3
# CELL(abcABC): 1322.94304  1322.94304  1322.94304    90.00000    90.00000    90.00000  Step:        7600  Bead:      27 positions{angstrom}  cell{angstrom}
       E -4.28171e+01 -8.01512e+01 -5.26591e+01
       E -6.85653e+01 -3.72184e+01  1.20142e+01
       E  3.41701e+01  4.82461e+01 -2.92303e+01
3
# CELL(abcABC): 1322.94304  1322.94304  1322.94304    90.00000    90.00000    90.00000  Step:        7700  Bead:      27 positions{angstrom}  cell{angstrom}
       E -8.38927e+00 -4.57091e+01 -4.75788e+01
       E -2.09735e+01 -4.88748e+01 -1.74248e+00
       E  5.95328e+01  2.78088e+01 -3.70664e+01
3
# CELL(abcABC): 1322.94304  1322.94304  1322.94304    90.00000    90.00000    90.00000  Step:        7800  Bead:      27 positions{angstrom}  cell{angstrom}
       E -1.47375e+01 -5.22071e+01 -3.93696e+01
       E  4.96799e+00 -4.87896e+01 -2.90237e+01
       E  6.59797e+01  4.21267e+00 -2.10514e+01
3
# CELL(abcABC): 1322.94304  1322.94304  1322.94304    90.00000    90.00000    90.00000  Step:        7900  Bead:      27 positions{angstrom}  cell{angstrom}
       E  2.32599e+01 -3.48033e+01 -2.15627e+01
       E  2.89882e+01 -5.60955e+01 -4.04998e+01
       E  3.28777e+01  1.68528e+01 -6.69936e+01
3
# CELL(abcABC): 1322.94304  1322.94304  1322.94304    90.00000    90.00000    90.00000  Step:        8000  Bead:      27 positions{angstrom}  cell{angstrom}
       E  3.13708e+01  3.48116e+00 -4.63404e+01
       E  3.75722e+00 -3.51705e+01 -7.98515e+01
       E  5.51628e+01  9.67691e+00 -2.94830e+00
3
# CELL(abcABC): 1322.94304  1322.94304  1322.94304    90.00000    90.00000    90.00000  Step:        8100  Bead:      27 positions{angstrom}  cell{angstrom}
       E  2.48363e+01  5.70390e+01 -2.12819e+01
       E -3.01580e+01 -1.28367e+01 -7.15582e+01
       E  1.74473e+01 -2.39940e+01 -2.06207e+00
3
# CELL(abcABC): 1322.94304  1322.94304  1322.94304    90.00000    90.00000    90.00000  Step:        8200  Bead:      27 positions{angstrom}  cell{angstrom}
       E  2.27080e+01  7.35775e+01  3.27532e+01
       E  9.21937e+00  3.31717e+01 -1.39009e+00
       E -4.64063e+00 -3.49927e+01  9.98195e-01
3
# CELL(abcABC): 1322.94304  1322.94304  1322.94304    90.00000    90.00000    90.00000  Step:        8300  Bead:      27 positions{angstrom}  cell{angstrom}
       E  1.93615e+01  8.41739e+01 -3.64705e+00
       E  2.33401e+00 -2.58134e+01 -1.53007e+01
       E  2.64360e+01 -5.19935e+01  7.93801e+00
3
# CELL(abcABC): 1322.94304  1322.94304  1322.94304    90.00000    90.00000    90.00000  Step:        8400  Bead:      27 positions{angstrom}  cell{angstrom}
       E  6.92331e+00 -2.07363e+01 -1.34607e+01
       E  1.41696e+00  2.89916e+01  2.57667e+01
       E -1.40708e+01 -3.91518e+01  7.23965e+01
3
# CELL(abcABC): 1322.94304  1322.94304  1322.94304    90.00000    90.00000    90.00000  Step:        8500  Bead:      27 positions{angstrom}  cell{angstrom}
       E  1.13435e+01 -8.49276e+00 -1.12399e+01
       E -3.72581e+00 -1.66775e+00 -3.45288e+00
       E  1.16090e+00 -2.85036e+01  2.45731e+01
3
# CELL(abcABC): 1322.94304  1322.94304  1322.94304    90.00000    90.00000    90.00000  Step:        8600  Bead:      27 positions{angstrom}  cell{angstrom}
       E -9.07629e+00 -5.37504e+00 -2.89848e+01
       E  1.36923e+01 -2.18941e+01  2.51710e+01
       E  7.15401e+01  1.89640e+00  2.33949e+01
3
# CELL(abcABC): 1322.94304  1322.94304  1322.94304    90.00000    90.00000    90.00000  Step:        8700  Bead:      27 positions{angstrom}  cell{angstrom}
       E -1.75999e+01  1.89791e+01 -2.13599e+01
       E  2.62264e+01 -3.35230e+00  3.13274e+01
       E  8.08490e+01 -2.06828e+01  2.08291e+01
3
# CELL(abcABC): 1322.94304  1322.94304  1322.94304    90.00000    90.00000    90.00000  Step:        8800  Bead:      27 positions{angstrom}  cell{angstrom}
       E -5.24594e+01  1.04227e+01 -1.22750e+01
       E -1.08790e+01 -2.22430e+01  2.44324e+01
       E  5.91443e+01 -3.11428e+01  1.93509e+01
3
# CELL(abcABC): 1322.94304  1322.94304  1322.94304    90.00000    90.00000    90.00000  Step:        8900  Bead:      27 positions{angstrom}  cell{angstrom}
       E -3.14320e+01  3.03893e+01  1.65579e+01
       E -1.29644e+01 -3.41489e+01  2.84086e+01
       E  1.29736e+01 -6.23747e+01 -1.34606e+01
3
# CELL(abcABC): 1322.94304  1322.94304  1322.94304    90.00000    90.00000    90.00000  Step:        9000  Bead:      27 positions{angstrom}  cell{angstrom}
       E -1.73405e+01  4.88956e+01  1.94663e+01
       E -1.68462e+01 -6.18035e+01  4.97488e+01
       E -3.97068e-01 -6.92961e+01 -1.19141e+01
3
# CELL(abcABC): 1322.94304  1322.94304  1322.94304    90.00000    90.00000    90.00000  Step:        9100  Bead:      27 positions{angstrom}  cell{angstrom}
       E -2.02444e+01  3.28500e+01  4.31318e+00
       E -2.13795e+01  1.79406e+00  4.04282e+01
       E  5.30444e+01 -8.36707e+01  3.56297e+00
3
# CELL(abcABC): 1322.94304  1322.94304  1322.94304    90.00000    90.00000    90.00000  Step:        9200  Bead:      27 positions{angstrom}  cell{angstrom}
       E -4.35551e+00  4.13497e+01 -4.01071e+01
       E -7.96413e+00  5.21500e+00  1.03775e+01
       E  4.69488e+01 -5.64449e+01  1.90207e+01
3
# CELL(abcABC): 1322.94304  1322.94304  1322.94304    90.00000    90.00000    90.00000  Step:        9300  Bead:      27 positions{angstrom}  cell{angstrom}
       E  3.88505e+01 -1.17991e+01 -5.74558e+01
       E -1.18032e+01 -2.87680e+01  6.35377e+01
       E  3.86558e+01 -1.50595e+01 -5.31911e+00
3
# CELL(abcABC): 1322.94304  1322.94304  1322.94304    90.00000    90.00000    90.00000  Step:        9400  Bead:      27 positions{angstrom}  cell{angstrom}
       E  6.15221e+01  2.55406e+01 -5.31434e+01
       E -6.20655e+00 -2.32792e+01  3.98701e+01
       E  1.29473e+01  1.12151e+00 -1.70886e+01
3
# CELL(abcABC): 1322.94304  1322.94304  1322.94304    90.00000    90.00000    90.00000  Step:        9500  Bead:      27 positions{angstrom}  cell{angstrom}
       E  2.98974e+01  2.35183e+01 -3.38559e+01
       E  2.37262e+01 -2.13606e+01  2.81811e+01
       E  3.21694e+01  5.02845e+00  1.13926e+00
3
# CELL(abcABC): 1322.94304  1322.94304  1322.94304    90.00000    90.00000    90.00000  Step:        9600  Bead:      27 positions{angstrom}  cell{angstrom}
       E  2.54015e+01 -1.96937e+01 -5.09306e+01
       E  4.20911e+01 -4.25709e+01 -1.14373e+01
       E  1.21105e+01 -1.27313e+01 -3.54234e+00
3
# CELL(abcABC): 1322.94304  1322.94304  1322.94304    90.00000    90.00000    90.00000  Step:        9700  Bead:      27 positions{angstrom}  cell{angstrom}
       E -1.96964e+01 -5.52362e+01 -6.70645e+01
       E  3.85600e+01 -8.28541e+01  7.08421e-01
       E -5.11510e+01 -8.41056e+00 -9.46613e+00
3
# CELL(abcABC): 1322.94304  1322.94304  1322.94304    90.00000    90.00000    90.00000  Step:        9800  Bead:      27 positions{angstrom}  cell{angstrom}
       E -3.30013e+01 -5.57187e+01 -2.78883e+01
       E  4.25956e+01 -4.29346e+01 -8.15137e+00
       E -2.44438e+01 -1.92508e+01 -7.24822e+00
3