3
# CELL(abcABC): 1322.94304  1322.94304  1322.94304    90.00000    90.00000    90.00000  Step:           0  Bead:       4 positions{angstrom}  cell{angstrom}
       E  0.00000e+00  0.00000e+00  0.00000e+00
       E  0.00000e+00  0.00000e+00  0.00000e+00
       E  0.00000e+00  0.00000e+00  0.00000e+00
3
# CELL(abcABC): 1322.94304  1322.94304  1322.94304    90.00000    90.00000    90.00000  Step:         100  Bead:       4 positions{angstrom}  cell{angstrom}
       E -2.93457e+01 -4.62357e+01 -7.86575e+00
       E  1.20802e+01 -8.83602e+00 -2.45273e+00
       E -1.06508e+01  8.55020e+00  2.07752e+01
3
# CELL(abcABC): 1322.94304  1322.94304  1322.94304    90.00000    90.00000    90.00000  Step:         200  Bead:       4 positions{angstrom}  cell{angstrom}
       E -3.12096e+01 -2.85755e+01 -4.47748e+00
       E  1.48013e+01  7.96284e+00 -2.36711e+01
       E -7.03468e+00  1.84008e+01  2.95370e+01
3
# CELL(abcABC): 1322.94304  1322.94304  1322.94304    90.00000    90.00000    90.00000  Step:         300  Bead:       4 positions{angstrom}  cell{angstrom}
       E  8.16259e+00 -8.14202e+00 -4.29587e+01
       E  5.44544e+00  5.82640e+00 -1.85174e+01
       E -3.39562e+01 -4.33802e+00  3.23762e+01
3
# CELL(abcABC): 1322.94304  1322.94304  1322.94304    90.00000    90.00000    90.00000  Step:         400  Bead:       4 positions{angstrom}  cell{angstrom}
       E  3.73923e+01  1.77101e+01  4.12187e+00
       E  1.75375e+01  6.17542e+00  3.77055e-01
       E -2.56895e+01  2.51382e+01  4.48420e+01
3
# CELL(abcABC): 1322.94304  1322.94304  1322.94304    90.00000    90.00000    90.00000  Step:         500  Bead:       4 positions{angstrom}  cell{angstrom}
       E  8.88327e+00  9.58453e+00 -1.29592e+01
       E  2.06030e+01  9.28476e+00  2.07279e+01
       E -3.04111e+01  2.76217e+01 -7.92419e+00
3
# CELL(abcABC): 1322.94304  1322.94304  1322.94304    90.00000    90.00000    90.00000  Step:         600  Bead:       4 positions{angstrom}  cell{angstrom}
       E -2.26046e+01  1.15154e+01 -5.62657e+01
       E -9.09530e+00 -4.64872e+00  4.28337e+01
       E -3.15380e+01  1.27859e+01  3.28128e+01
3
# CELL(abcABC): 1322.94304  1322.94304  1322.94304    90.00000    90.00000    90.00000  Step:         700  Bead:       4 positions{angstrom}  cell{angstrom}
       E -1.83192e+01 -6.83821e+00 -2.62798e+01
       E -1.72268e+01 -2.43803e+00 -3.77515e+00
       E -3.96853e+00  3.24704e+01  5.08042e+01
3
# CELL(abcABC): 1322.94304  1322.94304  1322.94304    90.00000    90.00000    90.00000  Step:         800  Bead:       4 positions{angstrom}  cell{angstrom}
       E -1.24553e+01  1.11601e+01 -5.76901e+01
       E -1.78165e+01  5.87163e+00 -5.97668e+00
       E -4.81106e+01  4.33748e+01  7.01396e+01
3
# CELL(abcABC): 1322.94304  1322.94304  1322.94304    90.00000    90.00000    90.00000  Step:         900  Bead:       4 positions{angstrom}  cell{angstrom}
       E  1.50785e+01 -1.28526e+01 -2.71309e+01
       E  4.53370e+01  1.65951e+00  1.37128e+01
       E -4.93579e+01  4.25415e+01  1.16937e+02
3
# CELL(abcABC): 1322.94304  1322.94304  1322.94304    90.00000    90.00000    90.00000  Step:        1000  Bead:       4 positions{angstrom}  cell{angstrom}
       E -2.21253e+01  5.62051e+00 -7.99661e+01
       E  2.66414e+01  1.37328e+01 -2.92291e+01
       E -1.30617e+01  2.28974e+00  1.15998e+02
3
# CELL(abcABC): 1322.94304  1322.94304  1322.94304    90.00000    90.00000    90.00000  Step:        1100  Bead:       4 positions{angstrom}  cell{angstrom}
       E -6.87648e+00  2.72336e+01 -6.09193e+01
       E  4.41065e+01 -9.55719e+00 -4.64260e+01
       E -4.55768e+01 -4.15330e+00  6.21014e+01
3
# CELL(abcABC): 1322.94304  1322.94304  1322.94304    90.00000    90.00000    90.00000  Step:        1200  Bead:       4 positions{angstrom}  cell{angstrom}
       E  1.35831e+01  3.47912e+01 -7.43271e+01
       E  3.60032e+01 -2.41579e+01 -6.42712e+01
       E -2.87066e+01  2.54148e+01  4.34581e+01
3
# CELL(abcABC): 1322.94304  1322.94304  1322.94304    90.00000    90.00000    90.00000  Step:        1300  Bead:       4 positions{angstrom}  cell{angstrom}
       E  9.32440e+00  3.77955e+01 -6.94340e+01
       E -5.33257e+00 -6.50984e+01 -4.53124e+01
       E -3.01442e+01  4.66619e+01  2.32175e+01
3
# CELL(abcABC): 1322.94304  1322.94304  1322.94304    90.00000    90.00000    90.00000  Step:        1400  Bead:       4 positions{angstrom}  cell{angstrom}
       E -3.90183e+01  1.20255e+01 -6.82825e+01
       E -2.03670e+00 -1.29501e+01 -5.64640e+01
       E -5.13547e+01  1.40422e+01  5.22547e+01
3
# CELL(abcABC): 1322.94304  1322.94304  1322.94304    90.00000    90.00000    90.00000  Step:        1500  Bead:       4 positions{angstrom}  cell{angstrom}
       E -5.36842e+01  1.24646e+01 -5.03501e+01
       E -9.69355e-01 -1.31691e+01 -3.40952e+01
       E -3.18233e+01  1.87178e+01  2.69054e+01
3
# CELL(abcABC): 1322.94304  1322.94304  1322.94304    90.00000    90.00000    90.00000  Step:        1600  Bead:       4 positions{angstrom}  cell{angstrom}
       E -1.09296e+01  4.92401e+01 -2.06873e+01
       E -4.39324e+00 -1.95396e+01 -1.67393e+00
       E -1.76551e+01  5.66209e+01  9.18376e+00
3
# CELL(abcABC): 1322.94304  1322.94304  1322.94304    90.00000    90.00000    90.00000  Step:        1700  Bead:       4 positions{angstrom}  cell{angstrom}
       E -2.28132e+01  3.29721e+01 -2.30290e+01
       E -5.45643e+00 -7.52593e+00  1.36153e+01
       E -3.46002e+00  8.12810e+01  4.29409e+01
3
# CELL(abcABC): 1322.94304  1322.94304  1322.94304    90.00000    90.00000    90.00000  Step:        1800  Bead:       4 positions{angstrom}  cell{angstrom}
       E -5.90537e+01  3.20859e+01  8.00561e+00
       E -4.46939e+01  1.08417e+01  2.01717e+01
       E -9.02453e+01  5.47780e+01  4.72169e+01
3
# CELL(abcABC): 1322.94304  1322.94304  1322.94304    90.00000    90.00000    90.00000  Step:        1900  Bead:       4 positions{angstrom}  cell{angstrom}
       E -2.58437e+01  3.16441e+01  1.76235e+01
       E -7.10647e+01  3.47867e+00 -1.39861e+01
       E -7.08706e+01  4.64091e+01  5.89617e+01
3
# CELL(abcABC): 1322.94304  1322.94304  1322.94304    90.00000    90.00000    90.00000  Step:        2000  Bead:       4 positions{angstrom}  cell{angstrom}
       E -9.41467e-01  9.92809e+00  2.62402e+01
       E -4.09131e+01  1.48991e+01  4.36747e+01
       E -4.29986e+01  5.34595e+01  3.41188e+01
3
# CELL(abcABC): 1322.94304  1322.94304  1322.94304    90.00000    90.00000    90.00000  Step:        2100  Bead:       4 positions{angstrom}  cell{angstrom}
       E -2.74532e+01 -3.66195e+01  3.84625e+01
       E -5.32710e+01 -7.64465e+00  2.25021e+01
       E -8.98589e+01  5.38268e+01  5.66414e+00
3
# CELL(abcABC): 1322.94304  1322.94304  1322.94304    90.00000    90.00000    90.00000  Step:        2200  Bead:       4 positions{angstrom}  cell{angstrom}
       E  9.27511e+00 -6.19640e+01  2.45048e+01
       E -6.46797e+01 -2.51385e+01 -2.63243e+01
       E -5.95158e+01  6.56283e+01  1.93762e+01
3
# CELL(abcABC): 1322.94304  1322.94304  1322.94304    90.00000    90.00000    90.00000  Step:        2300  Bead:       4 positions{angstrom}  cell{angstrom}
       E  8.65352e+00 -5.88136e+01  1.10991e+01
       E -9.48119e+00 -6.63284e+01 -3.41826e+01
       E -2.09098e+00  9.38734e+01  3.46407e+01
3
# CELL(abcABC): 1322.94304  1322.94304  1322.94304    90.00000    90.00000    90.00000  Step:        2400  Bead:       4 positions{angstrom}  cell{angstrom}
       E -2.29496e+01 -3.37422e+01  3.19046e+01
       E  6.72694e+00 -7.13027e+01 -1.61621e+01
       E -1.15252e+01  3.61381e+01  3.37776e+01
3
# CELL(abcABC): 1322.94304  1322.94304  1322.94304    90.00000    90.00000    90.00000  Step:        2500  Bead:       4 positions{angstrom}  cell{angstrom}
       E  5.33224e+00 -2.52203e+01  6.24581e+01
       E  8.03518e+00 -3.15898e+01 -3.60362e+01
       E -3.14303e+01 -2.72281e+01  5.01859e+01
3
# CELL(abcABC): 1322.94304  1322.94304  1322.94304    90.00000    90.00000    90.00000  Step:        2600  Bead:       4 positions{angstrom}  cell{angstrom}
       E  6.38161e+00 -4.87186e+01  8.50245e+01
       E -2.98202e+01 -4.40264e+01 -4.72219e+01
       E -3.31897e+00 -2.99616e+01  4.82888e+01
3
# CELL(abcABC): 1322.94304  1322.94304  1322.94304    90.00000    90.00000    90.00000  Step:        2700  Bead:       4 positions{angstrom}  cell{angstrom}
       E -5.05984e+00 -4.73533e+01  6.31157e+01
       E -6.30568e+01 -4.88398e+01 -1.53640e+01
       E -1.11437e+01 -8.54058e+00  4.64080e+01
3
# CELL(abcABC): 1322.94304  1322.94304  1322.94304    90.00000    90.00000    90.00000  Step:        2800  Bead:       4 positions{angstrom}  cell{angstrom}
       E -1.65171e+01 -6.09536e+01  4.39622e+01
       E -2.60787e+01 -3.17509e+01 -3.92210e+01
       E  1.33976e+01  2.20108e+01  2.25636e+01
3
# CELL(abcABC): 1322.94304  1322.94304  1322.94304    90.00000    90.00000    90.00000  Step:        2900  Bead:       4 positions{angstrom}  cell{angstrom}
       E -7.01801e+01 -6.88818e+01  1.31663e+01
       E -2.96089e+01 -4.55587e+01 -3.28724e+01
       E  6.37584e+01 -8.46580e+00  5.09124e+01
3
# CELL(abcABC): 1322.94304  1322.94304  1322.94304    90.00000    90.00000    90.00000  Step:        3000  Bead:       4 positions{angstrom}  cell{angstrom}
       E -5.48002e+01 -3.53940e+01 -2.04840e+01
       E -3.97897e+01 -4.36726e+01 -2.95012e+00
       E  6.85276e+01 -4.96799e+00  1.29264e+01
3
# CELL(abcABC): 1322.94304  1322.94304  1322.94304    90.00000    90.00000    90.00000  Step:        3100  Bead:       4 positions{angstrom}  cell{angstrom}
       E -5.96995e+01 -4.02604e+01  3.16996e+01
       E -2.43928e+01 -7.97764e+01  3.79716e+01
       E  1.64781e+01  1.61180e+01  3.41674e+01
3
# CELL(abcABC): 1322.94304  1322.94304  1322.94304    90.00000    90.00000    90.00000  Step:        3200  Bead:       4 positions{angstrom}  cell{angstrom}
       E -8.38514e+01 -1.73296e+01  6.93975e+01
       E -6.10984e+01 -6.15780e+01  1.47035e+01
       E  7.62981e+01  5.87651e+01  2.06069e+01
3
# CELL(abcABC): 1322.94304  1322.94304  1322.94304    90.00000    90.00000    90.00000  Step:        3300  Bead:       4 positions{angstrom}  cell{angstrom}
       E -7.95371e+01 -1.53129e+01  4.64512e+01
       E -8.45729e+01 -2.38882e+01  6.34768e+01
       E  4.99030e+01  7.28594e+01  5.45738e+01
3
# CELL(abcABC): 1322.94304  1322.94304  1322.94304    90.00000    90.00000    90.00000  Step:        3400  Bead:       4 positions{angstrom}  cell{angstrom}
       E -9.01012e+01 -9.96719e+00  6.11048e+01
       E -7.41297e+01 -4.07310e+01  4.18303e+01
       E  2.35238e+01  4.61795e+01  7.48070e+01
3
# CELL(abcABC): 1322.94304  1322.94304  1322.94304    90.00000    90.00000    90.00000  Step:        3500  Bead:       4 positions{angstrom}  cell{angstrom}
       E -1.00516e+02 -2.50447e+01  1.83836e+01
       E -6.35284e+01 -5.84942e+01  4.82103e+01
       E -1.13743e+01  6.59799e+01  5.72863e+01
3
# CELL(abcABC): 1322.94304  1322.94304  1322.94304    90.00000    90.00000    90.00000  Step:        3600  Bead:       4 positions{angstrom}  cell{angstrom}
       E -8.47228e+01 -4.50536e+01  1.72989e+01
       E -6.13453e+01 -3.92765e+01  1.50379e+01
       E -5.69093e+01  3.69843e+01  2.06981e+01
3
# CELL(abcABC): 1322.94304  1322.94304  1322.94304    90.00000    90.00000    90.00000  Step:        3700  Bead:       4 positions{angstrom}  cell{angstrom}
       E -6.32699e+01 -5.19034e+01 -4.11865e+01
       E -1.30672e+01 -2.00761e+01  3.26211e+01
       E -3.39665e+01  1.25536e+01  7.36790e+00
3
# CELL(abcABC): 1322.94304  1322.94304  1322.94304    90.00000    90.00000    90.00000  Step:        3800  Bead:       4 positions{angstrom}  cell{angstrom}
       E -7.38697e+01 -2.61987e+01 -3.00741e+01
       E -4.78906e+00 -2.59945e+01 -1.46816e+01
       E -4.04736e+01 -1.48409e+01 -5.25381e+00
3
# CELL(abcABC): 1322.94304  1322.94304  1322.94304    90.00000    90.00000    90.00000  Step:        3900  Bead:       4 positions{angstrom}  cell{angstrom}
       E -9.25761e+01 -1.10769e+01  9.86313e-02
       E -2.04319e+01 -2.10653e+01 -5.45306e+01
       E -2.37302e+00 -3.38149e+01  1.08996e+01
3
# CELL(abcABC): 1322.94304  1322.94304  1322.94304    90.00000    90.00000    90.00000  Step:        4000  Bead:       4 positions{angstrom}  cell{angstrom}
       E -1.00637e+02  2.61490e+01  6.20093e+00
       E -5.34512e+01 -1.19338e+01 -1.09132e+01
       E -2.22676e+00 -3.11027e+01  6.77540e+00
3
# CELL(abcABC): 1322.94304  1322.94304  1322.94304    90.00000    90.00000    90.00000  Step:        4100  Bead:       4 positions{angstrom}  cell{angstrom}
       E -1.16747e+02  5.51118e+01 -5.26722e+01
       E -3.52754e+01  4.38337e+01  1.73570e+01
       E -3.37033e+01  1.05535e+01  1.47656e+00
3
# CELL(abcABC): 1322.94304  1322.94304  1322.94304    90.00000    90.00000    90.00000  Step:        4200  Bead:       4 positions{angstrom}  cell{angstrom}
       E -5.11427e+01  5.54788e+01 -4.88280e+01
       E -5.01881e+01  4.30231e+01  2.86960e+01
       E -5.28113e+01 -2.60966e+01 -1.65149e+01
3
# CELL(abcABC): 1322.94304  1322.94304  1322.94304    90.00000    90.00000    90.00000  Step:        4300  Bead:       4 positions{angstrom}  cell{angstrom}
       E -5.04557e+01  1.65787e+01 -5.83519e+01
       E -4.17336e+01  1.67302e+01  3.14290e+01
       E -4.60704e+01 -4.74614e+01  2.55332e+01
3
# CELL(abcABC): 1322.94304  1322.94304  1322.94304    90.00000    90.00000    90.00000  Step:        4400  Bead:       4 positions{angstrom}  cell{angstrom}
       E -5.87103e+01  3.00027e+01 -8.66213e+01
       E -6.08229e+01  7.18748e+01  1.44767e+01
       E -3.49303e+01 -1.71811e+01  3.11103e+01
3
# CELL(abcABC): 1322.94304  1322.94304  1322.94304    90.00000    90.00000    90.00000  Step:        4500  Bead:       4 positions{angstrom}  cell{angstrom}
       E -5.39620e+01  4.27242e+01 -6.11771e+01
       E -6.77750e+01  1.03528e+02  2.10050e+01
       E -1.26889e+01 -2.84587e+01  1.81734e+01
3
# CELL(abcABC): 1322.94304  1322.94304  1322.94304    90.00000    90.00000    90.00000  Step:        4600  Bead:       4 positions{angstrom}  cell{angstrom}
       E -4.51106e+01  3.92819e+01 -5.18628e+01
       E -8.37083e+01  3.32392e+01  1.47264e+01
       E -2.05151e+01 -1.80866e+01  1.93429e+01
3
# CELL(abcABC): 1322.94304  1322.94304  1322.94304    90.00000    90.00000    90.00000  Step:        4700  Bead:       4 positions{angstrom}  cell{angstrom}
       E -1.47389e+01  3.98425e+01 -5.31197e+01
       E -6.68036e+01  2.24151e+01 -7.65056e+00
       E -8.25777e+00  2.97189e+01  3.60345e+00
3
# CELL(abcABC): 1322.94304  1322.94304  1322.94304    90.00000    90.00000    90.00000  Step:        4800  Bead:       4 positions{angstrom}  cell{angstrom}
       E  2.28181e+01  3.95078e+01 -1.90940e+01
       E -8.18146e+01  2.59124e+01 -3.59056e+01
       E  3.89785e+01  1.25839e+01 -5.22852e+01
3
# CELL(abcABC): 1322.94304  1322.94304  1322.94304    90.00000    90.00000    90.00000  Step:        4900  Bead:       4 positions{angstrom}  cell{angstrom}
       E  6.10461e+01  4.83034e+01 -7.55079e-01
       E -1.22737e+02 -4.09478e+01 -3.36323e+01
       E  5.42450e+00  3.05114e+01 -7.64946e+01
3
# CELL(abcABC): 1322.94304  1322.94304  1322.94304    90.00000    90.00000    90.00000  Step:        5000  Bead:       4 positions{angstrom}  cell{angstrom}
       E  4.04766e+01  2.23032e+01  1.62396e+01
       E -5.91322e+01 -6.26298e+01 -7.82552e+00
       E -2.08429e+01  1.28810e+01 -6.75960e+01
3
# CELL(abcABC): 1322.94304  1322.94304  1322.94304    90.00000    90.00000    90.00000  Step:        5100  Bead:       4 positions{angstrom}  cell{angstrom}
       E  1.58460e+01  2.96630e+01  2.54911e+01
       E -7.40444e+01 -4.75504e+01  9.44134e+00
       E  2.48759e+01 -9.68232e+00 -2.99801e+00
3
# CELL(abcABC): 1322.94304  1322.94304  1322.94304    90.00000    90.00000    90.00000  Step:        5200  Bead:       4 positions{angstrom}  cell{angstrom}
       E  4.99697e+01  4.85310e+01 -7.68160e+00
       E -2.55816e+01 -1.60661e+00 -3.64271e+00
       E  3.04047e+00  2.37773e+01 -1.33290e+01
3
# CELL(abcABC): 1322.94304  1322.94304  1322.94304    90.00000    90.00000    90.00000  Step:        5300  Bead:       4 positions{angstrom}  cell{angstrom}
       E  1.65537e+01  1.12160e+01  2.60570e+01
       E -3.09126e+01  2.95039e+01 -3.35918e+01
       E  3.35931e+00  3.02266e+01 -1.63312e+00
3
# CELL(abcABC): 1322.94304  1322.94304  1322.94304    90.00000    90.00000    90.00000  Step:        5400  Bead:       4 positions{angstrom}  cell{angstrom}
       E  1.02771e+01  4.93536e+00  4.97822e+01
       E -4.65249e+01 -1.04813e+01 -3.09504e+01
       E -1.33536e+01  6.01865e+01  4.36798e+01
3
# CELL(abcABC): 1322.94304  1322.94304  1322.94304    90.00000    90.00000    90.00000  Step:        5500  Bead:       4 positions{angstrom}  cell{angstrom}
       E -1.54240e+01  3.60218e+01  3.98636e+01
       E -3.99772e+01 -1.50065e+00 -1.64511e+01
       E -1.34577e+01  1.55575e+01  3.99567e+01
3
# CELL(abcABC): 1322.94304  1322.94304  1322.94304    90.00000    90.00000    90.00000  Step:        5600  Bead:       4 positions{angstrom}  cell{angstrom}
       E  1.23720e+01  4.73973e+01  9.21591e+00
       E -6.90059e+00  1.81817e+01 -1.55077e+01
       E -2.28839e+01  8.09769e+00  3.61449e+01
3
# CELL(abcABC): 1322.94304  1322.94304  1322.94304    90.00000    90.00000    90.00000  Step:        5700  Bead:       4 positions{angstrom}  cell{angstrom}
       E -1.35486e+00  3.59802e+01 -3.01570e+00
       E -8.95124e+00  3.65106e+01 -1.31239e+01
       E -5.85656e+01  1.33183e+01  1.60077e+01
3
# CELL(abcABC): 1322.94304  1322.94304  1322.94304    90.00000    90.00000    90.00000  Step:        5800  Bead:       4 positions{angstrom}  cell{angstrom}
       E -2.60934e+01  1.55459e+01  2.26310e+00
       E -2.37269e+01  3.64398e+01  2.25777e+01
       E  1.59022e+00  1.38754e+01  2.07425e+01
3
# CELL(abcABC): 1322.94304  1322.94304  1322.94304    90.00000    90.00000    90.00000  Step:        5900  Bead:       4 positions{angstrom}  cell{angstrom}
       E -2.35997e+00 -9.61081e+00 -5.08576e-01
       E -4.88222e+01  1.69063e+01 -2.97270e+01
       E -2.89755e+01 -1.23478e+01 -2.15692e+01
3
# CELL(abcABC): 1322.94304  1322.94304  1322.94304    90.00000    90.00000    90.00000  Step:        6000  Bead:       4 positions{angstrom}  cell{angstrom}
       E  1.31062e+01 -1.36526e+01 -2.62624e+01
       E -1.64367e+01  3.17529e+01 -2.81873e+01
       E  3.29073e+01 -5.16899e+01 -5.28698e+00
3
# CELL(abcABC): 1322.94304  1322.94304  1322.94304    90.00000    90.00000    90.00000  Step:        6100  Bead:       4 positions{angstrom}  cell{angstrom}
       E  4.49991e+01 -1.61789e+01 -7.50298e+01
       E  1.76069e+01 -7.97786e+00  2.12196e+01
       E  1.05948e+01 -7.28487e+00 -1.45662e+01
3
# CELL(abcABC): 1322.94304  1322.94304  1322.94304    90.00000    90.00000    90.00000  Step:        6200  Bead:       4 positions{angstrom}  cell{angstrom}
       E  5.31434e+01 -2.71347e+01 -9.23232e+01
       E  4.88778e+01 -3.96527e+01  4.12881e+00
       E  1.79724e+01 -1.54466e+01 -2.43159e+01
3
# CELL(abcABC): 1322.94304  1322.94304  1322.94304    90.00000    90.00000    90.00000  Step:        6300  Bead:       4 positions{angstrom}  cell{angstrom}
       E  6.40367e+01 -3.31708e+01 -9.51619e+01
       E  3.95813e+01 -4.64874e+01 -1.71697e+01
       E  1.26999e+01 -1.81661e+01  1.41277e+01
3
# CELL(abcABC): 1322.94304  1322.94304  1322.94304    90.00000    90.00000    90.00000  Step:        6400  Bead:       4 positions{angstrom}  cell{angstrom}
       E  1.89994e+01 -6.80827e+01 -9.17020e+01
       E  7.47534e+01 -5.11797e+01 -3.17580e+01
       E  3.02492e+01 -4.33382e+01  3.68413e+01
3
# CELL(abcABC): 1322.94304  1322.94304  1322.94304    90.00000    90.00000    90.00000  Step:        6500  Bead:       4 positions{angstrom}  cell{angstrom}
       E -1.25064e+01 -9.98552e+01 -1.15617e+02
       E  5.54038e+01 -1.62410e+01 -4.08694e+01
       E -2.05490e+01 -4.44245e+01  2.38237e+01
3
# CELL(abcABC): 1322.94304  1322.94304  1322.94304    90.00000    90.00000    90.00000  Step:        6600  Bead:       4 positions{angstrom}  cell{angstrom}
       E -3.49557e+00 -9.18459e+01 -1.31551e+02
       E  2.25910e+00 -5.08056e+00 -3.28067e+01
       E  4.52840e+00 -1.65279e+01  6.21727e+01
3
# CELL(abcABC): 1322.94304  1322.94304  1322.94304    90.00000    90.00000    90.00000  Step:        6700  Bead:       4 positions{angstrom}  cell{angstrom}
       E  3.13102e+00 -6.61739e+01 -1.17614e+02
       E -3.05572e+00 -3.37747e+01 -1.42718e+01
       E -2.20359e+01 -1.88917e+01  2.60526e+00
3
# CELL(abcABC): 1322.94304  1322.94304  1322.94304    90.00000    90.00000    90.00000  Step:        6800  Bead:       4 positions{angstrom}  cell{angstrom}
       E -4.00568e+00 -4.69022e+01 -6.86201e+01
       E  2.96694e+01 -4.79552e+01 -3.28041e+01
       E -3.03922e+01  2.97660e+01  3.56835e+01
3
# CELL(abcABC): 1322.94304  1322.94304  1322.94304    90.00000    90.00000    90.00000  Step:        6900  Bead:       4 positions{angstrom}  cell{angstrom}
       E -3.54712e-01 -5.92205e+01 -6.73397e+01
       E  2.17752e+01 -9.08944e+00 -1.50520e+01
       E -2.92874e+01  1.48975e+01  3.36050e+01
3
# CELL(abcABC): 1322.94304  1322.94304  1322.94304    90.00000    90.00000    90.00000  Step:        7000  Bead:       4 positions{angstrom}  cell{angstrom}
       E -4.38866e+01 -2.26074e+01 -4.69522e+01
       E  1.29162e+01  2.13195e+00 -1.24793e+01
       E  2.43358e+01  3.46798e+01  4.03561e+01
3
# CELL(abcABC): 1322.94304  1322.94304  1322.94304    90.00000    90.00000    90.00000  Step:        7100  Bead:       4 positions{angstrom}  cell{angstrom}
       E -1.50074e+01 -7.04093e+00 -3.39333e+01
       E -4.44152e+01  3.92514e+01  5.41798e+00
       E  4.84276e+00  2.10219e+01  4.61227e+01
3
# CELL(abcABC): 1322.94304  1322.94304  1322.94304    90.00000    90.00000    90.00000  Step:        7200  Bead:       4 positions{angstrom}  cell{angstrom}
       E -5.25596e+00 -3.54451e+01 -4.24819e+01
       E -2.81394e+01  4.71752e+01  3.29740e+01
       E  5.80455e+01  6.59945e+01  1.50700e+01
3
# CELL(abcABC): 1322.94304  1322.94304  1322.94304    90.00000    90.00000    90.00000  Step:        7300  Bead:       4 positions{angstrom}  cell{angstrom}
       E -6.71899e+00 -3.02439e+01 -4.14346e+01
       E  2.11725e+00  4.73638e+01  4.02828e+01
       E  6.54816e+01  2.19930e+01  9.41837e+00
3
# CELL(abcABC): 1322.94304  1322.94304  1322.94304    90.00000    90.00000    90.00000  Step:        7400  Bead:       4 positions{angstrom}  cell{angstrom}
       E  6.26243e+00 -2.57277e+01  4.56729e+00
       E -2.89521e+01  1.65317e+01  6.20681e+01
       E  7.34217e+01  4.75465e+01 -4.06134e+01
3
# CELL(abcABC): 1322.94304  1322.94304  1322.94304    90.00000    90.00000    90.00000  Step:        7500  Bead:       4 positions{angstrom}  cell{angstrom}
       E -2.38336e+01 -4.91254e+01 -1.89039e+01
       E -2.69302e+01 -1.23356e+01  1.43756e+01
       E  1.01418e+02  6.55991e+01 -2.69693e+01
3
# CELL(abcABC): 1322.94304  1322.94304  1322.94304    90.00000    90.00000    90.00000  Step:        7600  Bead:       4 positions{angstrom}  cell{angstrom}
       E -3.66365e+01 -6.46090e+01 -2.05393e+01
       E -1.29134e+01 -4.62139e+01  7.68938e+00
       E  8.11893e+01  6.04616e+01 -5.21089e+01
3
# CELL(abcABC): 1322.94304  1322.94304  1322.94304    90.00000    90.00000    90.00000  Step:        7700  Bead:       4 positions{angstrom}  cell{angstrom}
       E  5.41209e+00 -8.09744e+01 -2.33664e+01
       E  7.29221e+00 -5.37495e+01 -2.06078e+01
       E  6.74035e+01  2.55223e+01 -3.11903e+01
3
# CELL(abcABC): 1322.94304  1322.94304  1322.94304    90.00000    90.00000    90.00000  Step:        7800  Bead:       4 positions{angstrom}  cell{angstrom}
       E  1.82005e+01 -2.96678e+01 -5.18720e+01
       E  1.68608e+01 -3.62505e+01 -1.79642e+01
       E  4.21350e+01  2.27458e+01 -6.14000e+01
3
# CELL(abcABC): 1322.94304  1322.94304  1322.94304    90.00000    90.00000    90.00000  Step:        7900  Bead:       4 positions{angstrom}  cell{angstrom}
       E  3.42791e+01  1.08806e+01 -6.19764e+01
       E  4.57967e+01 -1.51104e+01 -2.36007e+01
       E  6.42449e+01  4.34518e+01 -2.73622e+01
3
# CELL(abcABC): 1322.94304  1322.94304  1322.94304    90.00000    90.00000    90.00000  Step:        8000  Bead:       4 positions{angstrom}  cell{angstrom}
       E -7.59595e+00  1.70938e+01 -2.84481e+01
       E  2.90308e+01 -3.58542e+01 -4.77870e+01
       E  3.42647e+01  4.71637e+01 -2.05696e+01
3
# CELL(abcABC): 1322.94304  1322.94304  1322.94304    90.00000    90.00000    90.00000  Step:        8100  Bead:       4 positions{angstrom}  cell{angstrom}
       E  9.23916e+00  7.90516e+00 -7.23982e+00
       E  9.95327e+00  3.99144e+00 -3.84658e+01
       E  2.06377e+01 -5.82564e+00  5.08964e-01
3
# CELL(abcABC): 1322.94304  1322.94304  1322.94304    90.00000    90.00000    90.00000  Step:        8200  Bead:       4 positions{angstrom}  cell{angstrom}
       E  2.48511e+01  2.10141e+01 -4.41234e+01
       E  2.59178e+01  2.71631e+01 -2.68138e+00
       E  4.22452e+01 -2.74187e+01  2.38375e+01
3
# CELL(abcABC): 1322.94304  1322.94304  1322.94304    90.00000    90.00000    90.00000  Step:        8300  Bead:       4 positions{angstrom}  cell{angstrom}
       E  1.53073e+01 -2.87272e+00 -4.34052e+01
       E  2.62197e+01  5.90484e+00  3.60873e+01
       E -2.47023e+00 -3.01085e+01  3.78849e+01
3
# CELL(abcABC): 1322.94304  1322.94304  1322.94304    90.00000    90.00000    90.00000  Step:        8400  Bead:       4 positions{angstrom}  cell{angstrom}
       E  3.87727e+01  1.92036e+01  4.78619e+00
       E  1.26485e+01  3.05032e+00  3.23172e+01
       E  2.65873e+01  4.04508e+00  1.44300e+01
3
# CELL(abcABC): 1322.94304  1322.94304  1322.94304    90.00000    90.00000    90.00000  Step:        8500  Bead:       4 positions{angstrom}  cell{angstrom}
       E -1.20433e+01  8.66864e+00 -1.35538e+01
       E  6.91949e+01  7.80957e+00  2.68227e+01
       E  5.34946e+01 -2.52453e+01  2.07430e+01
3
# CELL(abcABC): 1322.94304  1322.94304  1322.94304    90.00000    90.00000    90.00000  Step:        8600  Bead:       4 positions{angstrom}  cell{angstrom}
       E -5.18812e+01  1.16057e+01 -4.35729e+00
       E  4.32805e+01  3.45326e+01 -3.53631e+00
       E  5.01903e+01 -1.68903e+01  4.78431e+01
3
# CELL(abcABC): 1322.94304  1322.94304  1322.94304    90.00000    90.00000    90.00000  Step:        8700  Bead:       4 positions{angstrom}  cell{angstrom}
       E -1.43861e+01  2.44892e+01 -2.05769e+01
       E  5.21722e+01 -2.49470e+01  2.61826e+00
       E  3.25390e+01 -3.59595e+01  2.89323e+01
3
# CELL(abcABC): 1322.94304  1322.94304  1322.94304    90.00000    90.00000    90.00000  Step:        8800  Bead:       4 positions{angstrom}  cell{angstrom}
       E -1.11712e+01  3.74434e+01  1.34137e+01
       E  4.05659e+00 -1.01411e+01 -2.02727e+01
       E  4.03829e+01 -7.38723e+01  5.74856e+01
3
# CELL(abcABC): 1322.94304  1322.94304  1322.94304    90.00000    90.00000    90.00000  Step:        8900  Bead:       4 positions{angstrom}  cell{angstrom}
       E -1.32103e+01  3.30395e+01  1.29893e+01
       E -2.64424e+01 -3.77129e+01  5.16333e+01
       E  1.99791e+01 -6.55357e+01  3.06992e+01
3
# CELL(abcABC): 1322.94304  1322.94304  1322.94304    90.00000    90.00000    90.00000  Step:        9000  Bead:       4 positions{angstrom}  cell{angstrom}
       E -1.51586e+01  2.63779e+01  1.09498e+01
       E -5.17030e+01 -2.45624e+01  3.09275e+01
       E  1.33747e+01 -7.78169e+01 -9.04330e-01
3
# CELL(abcABC): 1322.94304  1322.94304  1322.94304    90.00000    90.00000    90.00000  Step:        9100  Bead:       4 positions{angstrom}  cell{angstrom}
       E  2.07301e+01  2.73255e+01  3.39211e+01
       E -5.51177e+01 -2.39178e+01  3.65645e+01
       E -4.19891e+00 -6.95693e+01 -2.26637e+01
3
# CELL(abcABC): 1322.94304  1322.94304  1322.94304    90.00000    90.00000    90.00000  Step:        9200  Bead:       4 positions{angstrom}  cell{angstrom}
       E -7.19937e+00  3.53731e+01  1.57208e+01
       E  9.77902e+00 -4.49558e-01  4.26754e+01
       E -1.55453e+00 -2.33602e+01 -6.25540e+00
3
# CELL(abcABC): 1322.94304  1322.94304  1322.94304    90.00000    90.00000    90.00000  Step:        9300  Bead:       4 positions{angstrom}  cell{angstrom}
       E  1.15206e+01  4.24502e+01 -4.62176e+01
       E -2.18318e+00 -4.42545e+01  1.83956e+01
       E  4.32911e+01 -2.79171e+01 -8.48323e+00
3
# CELL(abcABC): 1322.94304  1322.94304  1322.94304    90.00000    90.00000    90.00000  Step:        9400  Bead:       4 positions{angstrom}  cell{angstrom}
       E  2.17584e+01  5.15655e+01 -2.70098e+01
       E  2.24434e+01 -2.06475e+01  4.50794e+00
       E  2.12027e+01 -1.99056e+01  1.75623e+01
3
# CELL(abcABC): 1322.94304  1322.94304  1322.94304    90.00000    90.00000    90.00000  Step:        9500  Bead:       4 positions{angstrom}  cell{angstrom}
       E  3.80795e+01  5.53401e+00 -2.25292e+01
       E  4.60220e+01  8.11233e+00  1.19817e+01
       E  6.45672e+00 -4.03502e+01  1.49356e+01
3
# CELL(abcABC): 1322.94304  1322.94304  1322.94304    90.00000    90.00000    90.00000  Step:        9600  Bead:       4 positions{angstrom}  cell{angstrom}
       E -2.08923e+01 -5.70150e-01 -5.12623e+01
       E  5.77027e+01 -5.73623e+01  3.76559e+01
       E -2.02376e+01 -1.93145e+01 -1.03482e+00
3
# CELL(abcABC): 1322.94304  1322.94304  1322.94304    90.00000    90.00000    90.00000  Step:        9700  Bead:       4 positions{angstrom}  cell{angstrom}
       E -7.14820e+01 -4.27888e+00 -9.25993e+01
       E  1.92162e+01 -5.34497e+01  5.61813e+01
       E -3.18993e+00 -2.99142e+01  1.07738e+01
3
# CELL(abcABC): 1322.94304  1322.94304  1322.94304    90.00000    90.00000    90.00000  Step:        9800  Bead:       4 positions{angstrom}  cell{angstrom}
       E -1.48461e+01 -4.00217e+01 -4.63051e+01
       E  4.73474e+01 -8.55112e+01 -6.58419e+00
       E -5.45656e+00 -3.04963e+01  3.35790e+01
3