3
# CELL(abcABC): 1322.94304  1322.94304  1322.94304    90.00000    90.00000    90.00000  Step:           0  Bead:      24 positions{angstrom}  cell{angstrom}
       E  0.00000e+00  0.00000e+00  0.00000e+00
       E  0.00000e+00  0.00000e+00  0.00000e+00
       E  0.00000e+00  0.00000e+00  0.00000e+00
3
# CELL(abcABC): 1322.94304  1322.94304  1322.94304    90.00000    90.00000    90.00000  Step:         100  Bead:      24 positions{angstrom}  cell{angstrom}
       E  2.52129e+01 -1.60864e+01 -2.47177e+00
       E  3.85391e+00 -4.56908e+01 -9.45979e+00
       E -1.25532e+01  1.26196e+01 -5.14811e-01
3
# CELL(abcABC): 1322.94304  1322.94304  1322.94304    90.00000    90.00000    90.00000  Step:         200  Bead:      24 positions{angstrom}  cell{angstrom}
       E -2.43146e+01 -1.43105e+01  3.74064e+01
       E -5.76509e+00 -7.39353e+01  5.96380e+00
       E  2.47274e+01  5.52746e+01 -1.21900e+00
3
# CELL(abcABC): 1322.94304  1322.94304  1322.94304    90.00000    90.00000    90.00000  Step:         300  Bead:      24 positions{angstrom}  cell{angstrom}
       E  1.11916e+01 -1.55642e+01  4.18122e+01
       E -1.07850e+00 -2.75325e+01  1.91228e+01
       E  7.65829e+00  1.98233e+01 -4.40473e+00
3
# CELL(abcABC): 1322.94304  1322.94304  1322.94304    90.00000    90.00000    90.00000  Step:         400  Bead:      24 positions{angstrom}  cell{angstrom}
       E  1.94630e+01 -4.54857e+00 -1.84071e+01
       E  1.62960e+01 -5.18625e+01 -1.24113e+01
       E  9.44671e+00  1.25259e+01  1.55188e+00
3
# CELL(abcABC): 1322.94304  1322.94304  1322.94304    90.00000    90.00000    90.00000  Step:         500  Bead:      24 positions{angstrom}  cell{angstrom}
       E  2.87020e+01 -2.36951e+01 -6.23341e+01
       E  2.38686e+01 -9.19156e+00  2.28417e+01
       E -7.32154e-01  1.13976e+01  4.23653e+01
3
# CELL(abcABC): 1322.94304  1322.94304  1322.94304    90.00000    90.00000    90.00000  Step:         600  Bead:      24 positions{angstrom}  cell{angstrom}
       E  4.70315e+01 -8.82148e+00 -2.98546e+01
       E  1.29443e+01 -1.34258e+01  3.22427e+01
       E -1.45082e+01  3.93430e+01  1.69292e+01
3
# CELL(abcABC): 1322.94304  1322.94304  1322.94304    90.00000    90.00000    90.00000  Step:         700  Bead:      24 positions{angstrom}  cell{angstrom}
       E  3.06601e+01 -2.09980e+01 -1.53782e+01
       E  2.39259e+01 -2.70267e+01  2.26699e+01
       E -2.52877e+01  5.00473e+00  6.63875e+01
3
# CELL(abcABC): 1322.94304  1322.94304  1322.94304    90.00000    90.00000    90.00000  Step:         800  Bead:      24 positions{angstrom}  cell{angstrom}
       E  3.75173e+01 -8.06058e-01 -1.72671e+01
       E  2.60737e+01 -1.53709e+00  2.42983e+01
       E -5.82067e+01  1.52874e+01  4.18376e+01
3
# CELL(abcABC): 1322.94304  1322.94304  1322.94304    90.00000    90.00000    90.00000  Step:         900  Bead:      24 positions{angstrom}  cell{angstrom}
       E  3.87737e+01  2.24335e+01 -4.16326e+01
       E  2.25457e+00 -8.61348e+00  1.05934e+01
       E -5.51096e+01  2.05189e+01  8.99704e+01
3
# CELL(abcABC): 1322.94304  1322.94304  1322.94304    90.00000    90.00000    90.00000  Step:        1000  Bead:      24 positions{angstrom}  cell{angstrom}
       E  2.96225e+01  1.81400e+01 -3.30831e+01
       E  1.04974e+00  1.98861e+01 -1.53103e+01
       E -4.14069e+01  3.14889e+01  7.61339e+01
3
# CELL(abcABC): 1322.94304  1322.94304  1322.94304    90.00000    90.00000    90.00000  Step:        1100  Bead:      24 positions{angstrom}  cell{angstrom}
       E -1.21885e+01  1.79650e+01 -6.80935e+01
       E -1.51931e+01  7.32675e+00 -4.18097e+01
       E  1.68965e+01  2.60119e+01  5.87298e+01
3
# CELL(abcABC): 1322.94304  1322.94304  1322.94304    90.00000    90.00000    90.00000  Step:        1200  Bead:      24 positions{angstrom}  cell{angstrom}
       E  1.43029e+01  4.56636e+00 -3.62704e+01
       E  2.18703e+01  2.03853e+01 -5.10845e+01
       E  6.99508e+00  5.90557e+01  2.35366e+01
3
# CELL(abcABC): 1322.94304  1322.94304  1322.94304    90.00000    90.00000    90.00000  Step:        1300  Bead:      24 positions{angstrom}  cell{angstrom}
       E  3.55212e+00  1.56582e+01 -6.68028e+01
       E  2.39657e+00 -4.32927e+00 -7.92975e+01
       E -1.16618e+01  3.11750e+01  2.56831e+01
3
# CELL(abcABC): 1322.94304  1322.94304  1322.94304    90.00000    90.00000    90.00000  Step:        1400  Bead:      24 positions{angstrom}  cell{angstrom}
       E -1.71594e+01  6.05001e+01 -6.71250e+01
       E  5.88909e+00 -1.73896e+01 -3.91628e+01
       E -3.50580e+01  1.72757e+01  1.87641e+01
3
# CELL(abcABC): 1322.94304  1322.94304  1322.94304    90.00000    90.00000    90.00000  Step:        1500  Bead:      24 positions{angstrom}  cell{angstrom}
       E  6.51298e+00  4.58532e+01 -8.47803e+01
       E -2.73963e+01 -5.99434e+00 -4.84954e+01
       E -2.31205e+00  1.12993e+01  4.93879e+01
3
# CELL(abcABC): 1322.94304  1322.94304  1322.94304    90.00000    90.00000    90.00000  Step:        1600  Bead:      24 positions{angstrom}  cell{angstrom}
       E -2.91351e+01  4.62406e+01 -6.56710e+01
       E -3.76916e+01  3.05864e+01  8.78966e+00
       E  2.47288e+01  4.25394e+01  3.07279e+01
3
# CELL(abcABC): 1322.94304  1322.94304  1322.94304    90.00000    90.00000    90.00000  Step:        1700  Bead:      24 positions{angstrom}  cell{angstrom}
       E -1.47779e+01  3.37443e+01 -1.27214e+01
       E -4.24409e+00  3.23544e+01  3.14354e+01
       E  4.10948e+00  5.65082e+01 -2.63756e+01
3
# CELL(abcABC): 1322.94304  1322.94304  1322.94304    90.00000    90.00000    90.00000  Step:        1800  Bead:      24 positions{angstrom}  cell{angstrom}
       E -1.83229e+01  1.81429e+01  2.91882e+01
       E -6.06367e+01  2.15270e+01  1.64414e+01
       E -4.33658e+01  3.41435e+01 -8.33972e+00
3
# CELL(abcABC): 1322.94304  1322.94304  1322.94304    90.00000    90.00000    90.00000  Step:        1900  Bead:      24 positions{angstrom}  cell{angstrom}
       E -8.25588e-01 -6.48490e+00  3.86299e+01
       E -5.71780e+01  4.73619e+01  1.05710e+01
       E -4.71008e+01  2.03415e+01 -2.23132e+01
3
# CELL(abcABC): 1322.94304  1322.94304  1322.94304    90.00000    90.00000    90.00000  Step:        2000  Bead:      24 positions{angstrom}  cell{angstrom}
       E -2.62890e+01 -2.41638e+01  5.13736e+01
       E -1.39137e+01  3.61285e+01  6.17035e+00
       E -8.16556e+01  6.89890e+01  6.63901e+00
3
# CELL(abcABC): 1322.94304  1322.94304  1322.94304    90.00000    90.00000    90.00000  Step:        2100  Bead:      24 positions{angstrom}  cell{angstrom}
       E -1.46643e+01 -5.95704e+01  5.68488e+01
       E -1.49936e+01 -1.28497e+01  3.96211e+01
       E -3.80451e+01  9.79694e+01  5.11257e-01
3
# CELL(abcABC): 1322.94304  1322.94304  1322.94304    90.00000    90.00000    90.00000  Step:        2200  Bead:      24 positions{angstrom}  cell{angstrom}
       E -2.92793e+01 -6.74732e+01  1.21422e+01
       E -2.20687e+00 -1.31609e+01  1.50117e+01
       E -4.13771e+01  3.19466e+01  1.39052e+01
3
# CELL(abcABC): 1322.94304  1322.94304  1322.94304    90.00000    90.00000    90.00000  Step:        2300  Bead:      24 positions{angstrom}  cell{angstrom}
       E -2.69780e+01 -7.20678e+01  9.89740e+00
       E -2.74699e+01  1.21550e+01  2.16045e+00
       E -5.92047e+01  3.90879e+01 -1.37031e+01
3
# CELL(abcABC): 1322.94304  1322.94304  1322.94304    90.00000    90.00000    90.00000  Step:        2400  Bead:      24 positions{angstrom}  cell{angstrom}
       E -2.43528e+00 -6.48795e+01 -4.84847e+00
       E -2.98228e+01 -1.00004e+01 -1.79104e+01
       E -2.13562e+01  1.92292e+01 -2.04450e+01
3
# CELL(abcABC): 1322.94304  1322.94304  1322.94304    90.00000    90.00000    90.00000  Step:        2500  Bead:      24 positions{angstrom}  cell{angstrom}
       E -3.08045e+01 -1.62896e+01  3.86591e-01
       E -2.72922e+01 -5.79110e+01 -4.02416e+01
       E  8.93430e+00 -2.58981e+00  3.61910e+01
3
# CELL(abcABC): 1322.94304  1322.94304  1322.94304    90.00000    90.00000    90.00000  Step:        2600  Bead:      24 positions{angstrom}  cell{angstrom}
       E -5.57607e+01 -1.95870e+01  4.93565e+01
       E -7.38603e+01 -3.97721e+01 -2.74323e+01
       E  4.07379e+01 -2.46320e+01  8.08984e+01
3
# CELL(abcABC): 1322.94304  1322.94304  1322.94304    90.00000    90.00000    90.00000  Step:        2700  Bead:      24 positions{angstrom}  cell{angstrom}
       E -6.93035e+01 -4.55811e+01  7.76200e+01
       E -3.45553e+01 -3.34912e+01 -2.90580e+01
       E -4.45961e-01 -4.12588e+01  8.89576e+01
3
# CELL(abcABC): 1322.94304  1322.94304  1322.94304    90.00000    90.00000    90.00000  Step:        2800  Bead:      24 positions{angstrom}  cell{angstrom}
       E -5.24669e+01 -5.91139e+01  1.03333e+02
       E -7.74735e+01 -4.44615e+01 -1.40984e+01
       E  3.66595e+01 -3.58684e+01  3.77577e+01
3
# CELL(abcABC): 1322.94304  1322.94304  1322.94304    90.00000    90.00000    90.00000  Step:        2900  Bead:      24 positions{angstrom}  cell{angstrom}
       E -7.23200e+01 -5.77264e+01  8.35780e+01
       E -6.27808e+01 -6.39938e+01  2.90846e+01
       E  5.55516e+01 -2.57890e+01  4.07271e+01
3
# CELL(abcABC): 1322.94304  1322.94304  1322.94304    90.00000    90.00000    90.00000  Step:        3000  Bead:      24 positions{angstrom}  cell{angstrom}
       E -6.97774e+01 -5.70099e+01  8.39413e+01
       E -8.94934e+01 -6.32597e+01  1.10427e+01
       E  3.08265e+01  3.65092e+01 -8.83927e+00
3
# CELL(abcABC): 1322.94304  1322.94304  1322.94304    90.00000    90.00000    90.00000  Step:        3100  Bead:      24 positions{angstrom}  cell{angstrom}
       E -7.44114e+01 -2.91989e+01  5.26797e+01
       E -6.37573e+01 -5.60180e+01  4.20425e+01
       E  7.86340e+01  7.64028e+01  8.97295e+00
3
# CELL(abcABC): 1322.94304  1322.94304  1322.94304    90.00000    90.00000    90.00000  Step:        3200  Bead:      24 positions{angstrom}  cell{angstrom}
       E -7.14541e+01 -4.39648e+01  2.55909e+01
       E -6.27171e+01 -2.22659e+01  7.77380e+01
       E  5.71591e+01  5.63691e+01  1.80860e+01
3
# CELL(abcABC): 1322.94304  1322.94304  1322.94304    90.00000    90.00000    90.00000  Step:        3300  Bead:      24 positions{angstrom}  cell{angstrom}
       E -7.09959e+01 -1.46313e+01  7.42897e+01
       E -1.00234e+02 -1.73081e+01  5.77987e+01
       E  3.91410e+01  8.76397e+01 -1.61546e+01
3
# CELL(abcABC): 1322.94304  1322.94304  1322.94304    90.00000    90.00000    90.00000  Step:        3400  Bead:      24 positions{angstrom}  cell{angstrom}
       E -1.16752e+02  3.05467e+01  8.13579e+01
       E -5.69851e+01 -3.03028e+01  3.01744e+01
       E  2.85465e+01  7.51196e+01  4.70520e+01
3
# CELL(abcABC): 1322.94304  1322.94304  1322.94304    90.00000    90.00000    90.00000  Step:        3500  Bead:      24 positions{angstrom}  cell{angstrom}
       E -9.24019e+01  9.48677e+00  8.36490e+01
       E -2.43213e+01 -3.30056e+01  2.81013e+01
       E  4.66898e+01  5.68674e+01  1.69964e+01
3
# CELL(abcABC): 1322.94304  1322.94304  1322.94304    90.00000    90.00000    90.00000  Step:        3600  Bead:      24 positions{angstrom}  cell{angstrom}
       E -1.19639e+02 -2.23720e+01  3.51447e+01
       E -3.26824e+01 -3.26271e+01  5.77372e+01
       E -4.30488e+01  3.56785e+01  1.14920e+01
3
# CELL(abcABC): 1322.94304  1322.94304  1322.94304    90.00000    90.00000    90.00000  Step:        3700  Bead:      24 positions{angstrom}  cell{angstrom}
       E -8.22335e+01 -1.01438e+01  1.93109e+01
       E  6.34364e+00 -3.64841e+01  3.74377e+01
       E -4.93490e+01  3.00759e+01  1.37730e+01
3
# CELL(abcABC): 1322.94304  1322.94304  1322.94304    90.00000    90.00000    90.00000  Step:        3800  Bead:      24 positions{angstrom}  cell{angstrom}
       E -7.52833e+01  1.45641e+01  7.16581e-01
       E -3.20964e-01 -4.22922e+01  3.86380e+01
       E -2.08936e+01 -2.37384e+01  1.21826e-01
3
# CELL(abcABC): 1322.94304  1322.94304  1322.94304    90.00000    90.00000    90.00000  Step:        3900  Bead:      24 positions{angstrom}  cell{angstrom}
       E -6.74416e+01  1.47620e+01 -1.94754e+01
       E -8.90356e+00 -2.80567e+01  1.95153e+01
       E  2.14007e+01 -1.95081e+01 -3.80507e+00
3
# CELL(abcABC): 1322.94304  1322.94304  1322.94304    90.00000    90.00000    90.00000  Step:        4000  Bead:      24 positions{angstrom}  cell{angstrom}
       E -9.17966e+01  1.22152e+01 -5.32189e+01
       E -5.10087e+01 -5.47457e+00  2.94297e+00
       E -2.24184e+01 -1.40046e+01  1.81537e+01
3
# CELL(abcABC): 1322.94304  1322.94304  1322.94304    90.00000    90.00000    90.00000  Step:        4100  Bead:      24 positions{angstrom}  cell{angstrom}
       E -1.07999e+02  2.97524e+01 -7.57765e+01
       E -6.08740e+01  1.46569e+01 -6.53392e-03
       E  3.14032e+00 -4.81516e+00  1.87685e+01
3
# CELL(abcABC): 1322.94304  1322.94304  1322.94304    90.00000    90.00000    90.00000  Step:        4200  Bead:      24 positions{angstrom}  cell{angstrom}
       E -7.88738e+01 -1.37683e+01 -1.04530e+02
       E -4.92474e+01  3.34168e+01 -2.45786e+01
       E  2.28570e+01  6.38504e+00 -3.50605e+00
3
# CELL(abcABC): 1322.94304  1322.94304  1322.94304    90.00000    90.00000    90.00000  Step:        4300  Bead:      24 positions{angstrom}  cell{angstrom}
       E -6.83387e+01  7.71293e+00 -7.84307e+01
       E -2.81292e+01  6.33313e+01 -1.45475e+01
       E  3.26732e+01 -8.52443e+00  4.08778e+01
3
# CELL(abcABC): 1322.94304  1322.94304  1322.94304    90.00000    90.00000    90.00000  Step:        4400  Bead:      24 positions{angstrom}  cell{angstrom}
       E -5.25590e+01  2.94894e+01 -8.60241e+01
       E -3.80403e+01  5.42765e+01 -5.31103e+00
       E  3.54244e+01 -5.10900e+01  2.60906e+01
3
# CELL(abcABC): 1322.94304  1322.94304  1322.94304    90.00000    90.00000    90.00000  Step:        4500  Bead:      24 positions{angstrom}  cell{angstrom}
       E -4.71337e+01  1.68066e+01 -6.65494e+01
       E -2.80754e+01  5.96400e+01 -1.00132e+01
       E  3.50917e+01 -7.27490e+01  2.33195e+01
3
# CELL(abcABC): 1322.94304  1322.94304  1322.94304    90.00000    90.00000    90.00000  Step:        4600  Bead:      24 positions{angstrom}  cell{angstrom}
       E -5.81456e+01  1.75480e+01 -6.24992e+01
       E -4.00255e+01  4.87425e+01  1.31348e+01
       E -1.83825e+01 -5.21045e+01  2.96618e+01
3
# CELL(abcABC): 1322.94304  1322.94304  1322.94304    90.00000    90.00000    90.00000  Step:        4700  Bead:      24 positions{angstrom}  cell{angstrom}
       E -2.53738e+01  5.21851e+01 -9.23010e+01
       E -6.76004e+01  6.21908e+01 -4.25659e+00
       E -1.82965e+01 -6.74130e+01  3.78436e+01
3
# CELL(abcABC): 1322.94304  1322.94304  1322.94304    90.00000    90.00000    90.00000  Step:        4800  Bead:      24 positions{angstrom}  cell{angstrom}
       E -1.27034e+01  6.97877e+00 -8.45482e+01
       E -2.74624e+01  2.29797e+01 -5.47757e+00
       E  1.37348e+01 -3.98613e+01  3.15763e+01
3
# CELL(abcABC): 1322.94304  1322.94304  1322.94304    90.00000    90.00000    90.00000  Step:        4900  Bead:      24 positions{angstrom}  cell{angstrom}
       E  1.42828e+01  4.55222e+01 -3.77417e+01
       E -3.98545e+01 -1.52878e+01 -3.28512e+01
       E -1.88804e+01 -5.71717e+01 -3.68837e+01
3
# CELL(abcABC): 1322.94304  1322.94304  1322.94304    90.00000    90.00000    90.00000  Step:        5000  Bead:      24 positions{angstrom}  cell{angstrom}
       E  6.62421e+01  2.24503e+01  4.94921e+00
       E -1.59874e+01 -3.37134e+01 -1.57660e+01
       E -1.29535e+01 -1.34852e+01 -9.29773e+00
3
# CELL(abcABC): 1322.94304  1322.94304  1322.94304    90.00000    90.00000    90.00000  Step:        5100  Bead:      24 positions{angstrom}  cell{angstrom}
       E  1.91966e+01  1.90507e+01  1.58385e+01
       E -4.04319e+01 -1.77486e+01 -3.12710e+01
       E  1.52289e-01 -4.49669e+00 -3.58874e+01
3
# CELL(abcABC): 1322.94304  1322.94304  1322.94304    90.00000    90.00000    90.00000  Step:        5200  Bead:      24 positions{angstrom}  cell{angstrom}
       E -3.67229e+00  1.78893e+01  5.50498e+01
       E -4.10780e+01  5.53009e+00 -1.59699e+01
       E -3.03078e+00  2.33961e+01 -1.80354e+01
3
# CELL(abcABC): 1322.94304  1322.94304  1322.94304    90.00000    90.00000    90.00000  Step:        5300  Bead:      24 positions{angstrom}  cell{angstrom}
       E  1.18583e+00 -1.03950e+01  2.39328e+00
       E -3.81078e+01  1.30626e+01 -2.89162e+00
       E -4.06810e+01  4.40516e+01  3.71613e+01
3
# CELL(abcABC): 1322.94304  1322.94304  1322.94304    90.00000    90.00000    90.00000  Step:        5400  Bead:      24 positions{angstrom}  cell{angstrom}
       E  4.50757e+01  2.89864e+00 -2.85250e+01
       E -4.35103e+01  2.95365e+01  1.50905e+01
       E -2.14997e+01  4.34723e+01  1.11541e+01
3
# CELL(abcABC): 1322.94304  1322.94304  1322.94304    90.00000    90.00000    90.00000  Step:        5500  Bead:      24 positions{angstrom}  cell{angstrom}
       E  5.00975e+01 -2.05762e+01 -1.45461e+01
       E -3.06742e+01  2.47588e+01 -2.81110e+00
       E -3.12013e+01  5.31141e+01  2.69253e+01
3
# CELL(abcABC): 1322.94304  1322.94304  1322.94304    90.00000    90.00000    90.00000  Step:        5600  Bead:      24 positions{angstrom}  cell{angstrom}
       E  1.25404e+01  9.44909e+00 -4.16701e+01
       E  3.44701e+00  3.24274e+01  1.97244e+01
       E -6.96997e+01  1.93404e+01  1.21221e+01
3
# CELL(abcABC): 1322.94304  1322.94304  1322.94304    90.00000    90.00000    90.00000  Step:        5700  Bead:      24 positions{angstrom}  cell{angstrom}
       E  5.03793e+01  1.35762e+01 -4.87747e+01
       E -2.74079e+01  5.64611e-01 -1.04739e+01
       E -4.35660e+01 -3.95357e+00  1.16797e+01
3
# CELL(abcABC): 1322.94304  1322.94304  1322.94304    90.00000    90.00000    90.00000  Step:        5800  Bead:      24 positions{angstrom}  cell{angstrom}
       E  2.64047e+01 -2.27182e+00 -3.30312e+01
       E -4.46855e+01 -2.05199e+01 -1.78481e+01
       E -2.14907e+01 -2.08097e+01 -2.36342e+00
3
# CELL(abcABC): 1322.94304  1322.94304  1322.94304    90.00000    90.00000    90.00000  Step:        5900  Bead:      24 positions{angstrom}  cell{angstrom}
       E  2.57358e+01 -7.71787e-01  2.21273e+00
       E -4.76974e+00  2.27323e+00 -1.10795e+01
       E  9.91043e+00 -4.43036e+01  1.46880e+01
3
# CELL(abcABC): 1322.94304  1322.94304  1322.94304    90.00000    90.00000    90.00000  Step:        6000  Bead:      24 positions{angstrom}  cell{angstrom}
       E -5.00712e-01 -3.03400e+01 -3.10748e+01
       E  2.42464e+01 -6.05702e+00 -4.60628e+01
       E -1.50470e+01 -5.28880e+01  2.10868e+01
3
# CELL(abcABC): 1322.94304  1322.94304  1322.94304    90.00000    90.00000    90.00000  Step:        6100  Bead:      24 positions{angstrom}  cell{angstrom}
       E -8.69568e+00 -3.26085e+01 -3.75929e+01
       E  8.40389e+01 -2.08288e+00 -4.64595e+01
       E  2.67920e+01 -4.16688e+01  1.96058e+00
3
# CELL(abcABC): 1322.94304  1322.94304  1322.94304    90.00000    90.00000    90.00000  Step:        6200  Bead:      24 positions{angstrom}  cell{angstrom}
       E  1.95809e+01 -1.10200e+01 -7.04016e+01
       E  1.08341e+02  4.56786e+01  6.55198e+00
       E -1.38552e+01 -2.93529e+01  2.58524e+01
3
# CELL(abcABC): 1322.94304  1322.94304  1322.94304    90.00000    90.00000    90.00000  Step:        6300  Bead:      24 positions{angstrom}  cell{angstrom}
       E  5.00381e+01 -7.76440e+01 -1.24248e+02
       E  7.14399e+01 -2.00242e+00 -1.82102e+01
       E  7.98470e+00 -5.50355e+01  4.64613e+01
3
# CELL(abcABC): 1322.94304  1322.94304  1322.94304    90.00000    90.00000    90.00000  Step:        6400  Bead:      24 positions{angstrom}  cell{angstrom}
       E  6.88001e+01 -7.59840e+01 -1.43828e+02
       E  2.69260e+01 -1.98424e+01 -3.53524e+01
       E  1.09622e+01 -4.63165e+01  1.00804e+01
3
# CELL(abcABC): 1322.94304  1322.94304  1322.94304    90.00000    90.00000    90.00000  Step:        6500  Bead:      24 positions{angstrom}  cell{angstrom}
       E  3.72605e+01 -9.38343e+01 -1.21706e+02
       E  2.91542e+00 -1.32841e+01 -6.63187e+01
       E  1.29125e+01 -2.43794e+01  1.37494e+01
3
# CELL(abcABC): 1322.94304  1322.94304  1322.94304    90.00000    90.00000    90.00000  Step:        6600  Bead:      24 positions{angstrom}  cell{angstrom}
       E  2.60635e+01 -9.15767e+01 -1.03174e+02
       E  4.40475e+01  2.70484e+01 -3.29693e+01
       E  1.80302e+01  6.19395e+00  3.17418e+01
3
# CELL(abcABC): 1322.94304  1322.94304  1322.94304    90.00000    90.00000    90.00000  Step:        6700  Bead:      24 positions{angstrom}  cell{angstrom}
       E  3.74750e+01 -1.14884e+02 -1.03904e+02
       E  6.09032e+01  1.51431e+00  5.89945e+00
       E -1.50777e+01 -1.41887e+01  3.77963e+01
3
# CELL(abcABC): 1322.94304  1322.94304  1322.94304    90.00000    90.00000    90.00000  Step:        6800  Bead:      24 positions{angstrom}  cell{angstrom}
       E  3.11126e+01 -1.29643e+02 -8.12013e+01
       E  6.28835e+01 -3.51815e+01 -5.96341e+00
       E -1.30179e+01 -3.61373e+01  2.85102e+01
3
# CELL(abcABC): 1322.94304  1322.94304  1322.94304    90.00000    90.00000    90.00000  Step:        6900  Bead:      24 positions{angstrom}  cell{angstrom}
       E  2.77857e+01 -8.35130e+01 -4.69898e+01
       E  5.79367e+01 -2.53588e+01 -1.90194e+01
       E -1.21366e+01 -1.74676e+01 -1.32963e+01
3
# CELL(abcABC): 1322.94304  1322.94304  1322.94304    90.00000    90.00000    90.00000  Step:        7000  Bead:      24 positions{angstrom}  cell{angstrom}
       E  4.15193e+01 -1.30311e+01 -7.71774e+00
       E  4.83747e+01  2.38879e+01 -2.31162e+01
       E  2.80013e+01  1.78610e+01 -6.00681e+01
3
# CELL(abcABC): 1322.94304  1322.94304  1322.94304    90.00000    90.00000    90.00000  Step:        7100  Bead:      24 positions{angstrom}  cell{angstrom}
       E  2.33997e+01 -3.93977e+01 -3.50394e+01
       E  2.99657e+00  3.86787e+01  2.02861e+00
       E  6.28045e+01 -1.77626e+00 -4.55212e+01
3
# CELL(abcABC): 1322.94304  1322.94304  1322.94304    90.00000    90.00000    90.00000  Step:        7200  Bead:      24 positions{angstrom}  cell{angstrom}
       E -3.56015e+00 -4.36088e+01 -5.75986e+01
       E -3.39337e+01  5.05299e+01  9.41901e+00
       E  5.24312e+01  4.32320e+01 -4.82561e+01
3
# CELL(abcABC): 1322.94304  1322.94304  1322.94304    90.00000    90.00000    90.00000  Step:        7300  Bead:      24 positions{angstrom}  cell{angstrom}
       E  4.92752e+01 -2.45564e+01 -4.86122e+01
       E -4.72265e+01  3.56911e+00 -1.73451e+01
       E  5.76233e+01  6.23715e+01 -2.06575e+00
3
# CELL(abcABC): 1322.94304  1322.94304  1322.94304    90.00000    90.00000    90.00000  Step:        7400  Bead:      24 positions{angstrom}  cell{angstrom}
       E -1.09147e+01 -4.57732e+01 -4.09973e+01
       E -3.19571e+01 -1.86798e+01 -5.62675e+00
       E  5.03739e+01  2.43020e+01  1.39269e+01
3
# CELL(abcABC): 1322.94304  1322.94304  1322.94304    90.00000    90.00000    90.00000  Step:        7500  Bead:      24 positions{angstrom}  cell{angstrom}
       E -1.88251e+01 -4.95166e+01 -4.52999e+01
       E -1.39475e+01 -4.69474e+01  2.15747e+01
       E  5.86595e+01  2.07680e+01  1.86075e+01
3
# CELL(abcABC): 1322.94304  1322.94304  1322.94304    90.00000    90.00000    90.00000  Step:        7600  Bead:      24 positions{angstrom}  cell{angstrom}
       E -1.52416e+01 -7.55639e+01 -4.83975e+01
       E -7.14348e+01 -2.11907e+01  2.81653e+01
       E  5.76949e+01  2.18061e+01 -3.54962e+01
3
# CELL(abcABC): 1322.94304  1322.94304  1322.94304    90.00000    90.00000    90.00000  Step:        7700  Bead:      24 positions{angstrom}  cell{angstrom}
       E -2.76111e+01 -6.89549e+01 -6.25000e+01
       E -2.15567e+01 -2.56124e+01 -1.27302e+01
       E  6.69293e+01  2.18995e+00 -2.31187e+01
3
# CELL(abcABC): 1322.94304  1322.94304  1322.94304    90.00000    90.00000    90.00000  Step:        7800  Bead:      24 positions{angstrom}  cell{angstrom}
       E  1.95821e+01 -2.83737e+01 -4.97650e+01
       E -1.57619e+01 -2.38570e+01 -2.66073e+01
       E  7.45310e+01 -3.28746e+01 -2.17296e+01
3
# CELL(abcABC): 1322.94304  1322.94304  1322.94304    90.00000    90.00000    90.00000  Step:        7900  Bead:      24 positions{angstrom}  cell{angstrom}
       E  3.03050e+01 -3.70591e+01 -4.68280e+01
       E  4.28917e+01 -2.42186e+01 -3.56061e+01
       E  1.47178e+01 -2.33631e+01 -4.32102e+01
3
# CELL(abcABC): 1322.94304  1322.94304  1322.94304    90.00000    90.00000    90.00000  Step:        8000  Bead:      24 positions{angstrom}  cell{angstrom}
       E  2.65934e+01  4.90905e+00 -1.09734e+01
       E -4.47020e+00 -2.37973e+01 -4.56786e+01
       E  1.70273e+01  3.25324e+00 -5.16682e+01
3
# CELL(abcABC): 1322.94304  1322.94304  1322.94304    90.00000    90.00000    90.00000  Step:        8100  Bead:      24 positions{angstrom}  cell{angstrom}
       E  2.26263e+01  5.77340e+01 -3.31881e+01
       E -6.28589e+01 -6.39787e+00 -4.63680e+01
       E  1.62518e+01 -7.83838e+00  1.20206e+01
3
# CELL(abcABC): 1322.94304  1322.94304  1322.94304    90.00000    90.00000    90.00000  Step:        8200  Bead:      24 positions{angstrom}  cell{angstrom}
       E  6.52179e+00  3.43369e+01  1.92232e+01
       E -7.88181e+00 -1.32075e+00 -2.01086e+01
       E -8.79617e-01 -4.29140e+01  1.16889e+01
3
# CELL(abcABC): 1322.94304  1322.94304  1322.94304    90.00000    90.00000    90.00000  Step:        8300  Bead:      24 positions{angstrom}  cell{angstrom}
       E -2.56457e+01  5.58052e+01 -4.62187e+00
       E  2.17552e+01  2.58680e+01 -2.91770e+01
       E  3.77200e+00 -4.16064e+01  3.35218e+01
3
# CELL(abcABC): 1322.94304  1322.94304  1322.94304    90.00000    90.00000    90.00000  Step:        8400  Bead:      24 positions{angstrom}  cell{angstrom}
       E -4.60873e+01  1.04512e+01  1.19310e+01
       E  4.19888e+00  2.88811e+01  9.53955e+00
       E -1.45251e+01 -5.32645e+01  3.88613e+01
3
# CELL(abcABC): 1322.94304  1322.94304  1322.94304    90.00000    90.00000    90.00000  Step:        8500  Bead:      24 positions{angstrom}  cell{angstrom}
       E -2.12775e+01 -9.33536e-01 -2.41239e+01
       E  7.42623e-01  3.91943e+01  1.04575e+01
       E  4.45346e+00 -5.53663e+01  8.33775e+01
3
# CELL(abcABC): 1322.94304  1322.94304  1322.94304    90.00000    90.00000    90.00000  Step:        8600  Bead:      24 positions{angstrom}  cell{angstrom}
       E -1.40388e+01  1.37130e+01 -3.17912e+00
       E  1.28362e+01  1.85883e+01  4.26606e+01
       E  6.00865e+01 -1.49186e+00  3.34712e+01
3
# CELL(abcABC): 1322.94304  1322.94304  1322.94304    90.00000    90.00000    90.00000  Step:        8700  Bead:      24 positions{angstrom}  cell{angstrom}
       E  1.43215e+01 -7.65382e+00 -1.26544e+01
       E  4.62206e+00 -3.82050e+00  1.36614e+01
       E  6.34578e+01 -5.55795e-01  2.43344e+01
3
# CELL(abcABC): 1322.94304  1322.94304  1322.94304    90.00000    90.00000    90.00000  Step:        8800  Bead:      24 positions{angstrom}  cell{angstrom}
       E -4.72429e+01  7.31949e-01 -7.84061e+00
       E -3.15447e+00 -3.68251e+01  3.33993e+01
       E  7.64439e+01 -4.92618e+01  9.76763e+00
3
# CELL(abcABC): 1322.94304  1322.94304  1322.94304    90.00000    90.00000    90.00000  Step:        8900  Bead:      24 positions{angstrom}  cell{angstrom}
       E -5.53658e+01  3.35139e+01  4.76881e+00
       E  2.57606e+01 -3.36582e+01  1.01982e+01
       E  4.45591e+01 -7.26179e+01 -1.05681e+00
3
# CELL(abcABC): 1322.94304  1322.94304  1322.94304    90.00000    90.00000    90.00000  Step:        9000  Bead:      24 positions{angstrom}  cell{angstrom}
       E -5.05637e+01 -9.43211e+00  4.60857e+00
       E  1.89130e+01 -1.10573e+01  5.96788e+01
       E  1.76624e+01 -7.69711e+01  1.34668e+01
3
# CELL(abcABC): 1322.94304  1322.94304  1322.94304    90.00000    90.00000    90.00000  Step:        9100  Bead:      24 positions{angstrom}  cell{angstrom}
       E -3.74378e+01  4.05519e+00  7.33196e+00
       E  3.86806e+00  4.33767e+00  5.11264e+01
       E  2.68975e+01 -4.05524e+01  1.44129e+01
3
# CELL(abcABC): 1322.94304  1322.94304  1322.94304    90.00000    90.00000    90.00000  Step:        9200  Bead:      24 positions{angstrom}  cell{angstrom}
       E  1.68927e+01  3.41559e+01 -4.45955e+01
       E  2.29673e-01 -3.81483e+00  1.65578e+01
       E  3.98601e+01 -4.60984e+01  1.94046e+01
3
# CELL(abcABC): 1322.94304  1322.94304  1322.94304    90.00000    90.00000    90.00000  Step:        9300  Bead:      24 positions{angstrom}  cell{angstrom}
       E  2.33173e+01 -1.86473e+01 -6.44540e+01
       E -3.72999e+01 -2.48879e+01  2.89005e+01
       E  6.08469e+00 -3.05748e+01 -2.93795e+00
3
# CELL(abcABC): 1322.94304  1322.94304  1322.94304    90.00000    90.00000    90.00000  Step:        9400  Bead:      24 positions{angstrom}  cell{angstrom}
       E  4.91883e+01  1.51077e+01 -5.64249e+01
       E -2.19158e+01 -4.33244e+00  6.92201e+01
       E  1.47755e+01 -2.75893e+01 -1.22504e+01
3
# CELL(abcABC): 1322.94304  1322.94304  1322.94304    90.00000    90.00000    90.00000  Step:        9500  Bead:      24 positions{angstrom}  cell{angstrom}
       E  1.93926e+01  3.79884e+01 -6.10375e+01
       E  3.94280e+01 -2.12122e+01  7.15622e+01
       E  2.86422e+01 -2.31183e+01 -9.63647e+00
3
# CELL(abcABC): 1322.94304  1322.94304  1322.94304    90.00000    90.00000    90.00000  Step:        9600  Bead:      24 positions{angstrom}  cell{angstrom}
       E  2.76897e+01 -6.35944e+00 -5.72480e+01
       E  3.11865e+01 -8.78773e+01 -8.21610e+00
       E  9.03744e+00 -1.00964e+01 -1.09754e+01
3
# CELL(abcABC): 1322.94304  1322.94304  1322.94304    90.00000    90.00000    90.00000  Step:        9700  Bead:      24 positions{angstrom}  cell{angstrom}
       E -5.38531e+00 -4.33815e+01 -6.04212e+01
       E  2.61983e+01 -7.18276e+01  1.18404e+01
       E  4.01850e+00  1.25062e+01 -5.18162e+00
3
# CELL(abcABC): 1322.94304  1322.94304  1322.94304    90.00000    90.00000    90.00000  Step:        9800  Bead:      24 positions{angstrom}  cell{angstrom}
       E -5.09581e+01 -5.50000e+01 -4.22967e+01
       E  2.88922e+01 -4.25248e+01 -4.58532e+00
       E  6.35831e-01 -1.40409e+01  1.23674e+01
3