3
# CELL(abcABC): 1322.94304  1322.94304  1322.94304    90.00000    90.00000    90.00000  Step:           0  Bead:      14 positions{angstrom}  cell{angstrom}
       E  0.00000e+00  0.00000e+00  0.00000e+00
       E  0.00000e+00  0.00000e+00  0.00000e+00
       E  0.00000e+00  0.00000e+00  0.00000e+00
3
# CELL(abcABC): 1322.94304  1322.94304  1322.94304    90.00000    90.00000    90.00000  Step:         100  Bead:      14 positions{angstrom}  cell{angstrom}
       E  6.36387e+00 -6.86492e+00  2.34968e+01
       E  3.88965e+01 -1.48359e+01 -9.66963e+00
       E -1.25959e+01  1.88832e+01 -2.89238e+01
3
# CELL(abcABC): 1322.94304  1322.94304  1322.94304    90.00000    90.00000    90.00000  Step:         200  Bead:      14 positions{angstrom}  cell{angstrom}
       E -2.20974e+00  1.46586e+01 -4.34973e+00
       E  1.84848e+01 -3.06006e+01 -2.13661e+01
       E -1.65072e+01  1.70873e+01 -6.02394e+00
3
# CELL(abcABC): 1322.94304  1322.94304  1322.94304    90.00000    90.00000    90.00000  Step:         300  Bead:      14 positions{angstrom}  cell{angstrom}
       E -2.36004e+01  2.49607e+01  9.16630e+00
       E  1.54723e+01 -6.64436e+00 -2.94685e+01
       E -2.30388e+01  4.09935e+01  9.87243e+00
3
# CELL(abcABC): 1322.94304  1322.94304  1322.94304    90.00000    90.00000    90.00000  Step:         400  Bead:      14 positions{angstrom}  cell{angstrom}
       E -3.12560e+01  2.44130e+01  2.76401e+01
       E  3.29464e+01  2.18173e+01 -7.29402e+00
       E -2.76020e+01  2.89425e+01  2.87264e+01
3
# CELL(abcABC): 1322.94304  1322.94304  1322.94304    90.00000    90.00000    90.00000  Step:         500  Bead:      14 positions{angstrom}  cell{angstrom}
       E -2.68584e+01  1.69208e+01  1.25628e+00
       E  6.97868e+01  2.78997e+01 -1.30079e+01
       E  6.53660e+00  2.25891e+01  3.26918e+01
3
# CELL(abcABC): 1322.94304  1322.94304  1322.94304    90.00000    90.00000    90.00000  Step:         600  Bead:      14 positions{angstrom}  cell{angstrom}
       E -1.00546e+00  1.18263e+00 -4.55202e+01
       E  3.70189e+01 -1.17204e+01  1.66554e+01
       E -9.63685e+00 -2.05069e+00  2.35621e+01
3
# CELL(abcABC): 1322.94304  1322.94304  1322.94304    90.00000    90.00000    90.00000  Step:         700  Bead:      14 positions{angstrom}  cell{angstrom}
       E -3.63020e+01  1.50038e+01 -4.78425e+01
       E  1.06793e+01  4.22050e+01  2.53671e+01
       E -8.98146e+00  2.84284e+01  2.32086e+01
3
# CELL(abcABC): 1322.94304  1322.94304  1322.94304    90.00000    90.00000    90.00000  Step:         800  Bead:      14 positions{angstrom}  cell{angstrom}
       E -1.86305e+01  2.76879e+01  7.78795e+00
       E  5.84674e-01  4.23428e+01 -2.29298e+00
       E -2.73574e+01  6.39001e+00  4.88964e+01
3
# CELL(abcABC): 1322.94304  1322.94304  1322.94304    90.00000    90.00000    90.00000  Step:         900  Bead:      14 positions{angstrom}  cell{angstrom}
       E  3.72748e+00  5.06603e+00 -3.12484e+01
       E  2.01900e+01  2.57648e+01 -1.77274e+01
       E -2.35853e+01  8.12360e+00  7.48253e+01
3
# CELL(abcABC): 1322.94304  1322.94304  1322.94304    90.00000    90.00000    90.00000  Step:        1000  Bead:      14 positions{angstrom}  cell{angstrom}
       E  5.53111e+00  2.08367e+00 -5.49983e+01
       E  2.00102e+01 -8.37219e+00 -4.51044e+01
       E -2.67015e+01 -6.90265e+00  8.58597e+01
3
# CELL(abcABC): 1322.94304  1322.94304  1322.94304    90.00000    90.00000    90.00000  Step:        1100  Bead:      14 positions{angstrom}  cell{angstrom}
       E  3.39111e+01 -2.47470e+01 -4.07170e+01
       E -1.19325e+00  4.03837e+00 -5.47962e+01
       E -2.49645e+01  6.34241e+01  4.61494e+01
3
# CELL(abcABC): 1322.94304  1322.94304  1322.94304    90.00000    90.00000    90.00000  Step:        1200  Bead:      14 positions{angstrom}  cell{angstrom}
       E  2.01291e+00  1.48388e+01 -7.88443e+01
       E  7.34039e+00 -3.59796e+01 -1.16291e+01
       E  6.10827e+00  4.37142e+01  7.24323e+01
3
# CELL(abcABC): 1322.94304  1322.94304  1322.94304    90.00000    90.00000    90.00000  Step:        1300  Bead:      14 positions{angstrom}  cell{angstrom}
       E -3.14670e+00  1.00169e+01 -6.98289e+01
       E  5.51841e+01 -1.25456e+01 -3.88885e+01
       E -1.03240e+01  1.12972e+01  3.36889e+01
3
# CELL(abcABC): 1322.94304  1322.94304  1322.94304    90.00000    90.00000    90.00000  Step:        1400  Bead:      14 positions{angstrom}  cell{angstrom}
       E  1.77756e+01  5.04390e+01 -9.48914e+01
       E  3.45043e+00 -2.14352e+01 -4.40483e+01
       E -1.79079e+00  3.26429e+00  1.17854e+01
3
# CELL(abcABC): 1322.94304  1322.94304  1322.94304    90.00000    90.00000    90.00000  Step:        1500  Bead:      14 positions{angstrom}  cell{angstrom}
       E -2.34514e+01  3.97552e+01 -6.02230e+01
       E -3.47941e-01 -2.48150e+01 -3.51189e+01
       E -3.53527e+01  2.66874e+01  5.93186e+01
3
# CELL(abcABC): 1322.94304  1322.94304  1322.94304    90.00000    90.00000    90.00000  Step:        1600  Bead:      14 positions{angstrom}  cell{angstrom}
       E -5.37038e+00  6.44604e+01 -6.02984e+01
       E  6.55669e+00  5.15293e+01 -2.24797e+01
       E -4.31871e+01  3.47895e+01  5.35168e+01
3
# CELL(abcABC): 1322.94304  1322.94304  1322.94304    90.00000    90.00000    90.00000  Step:        1700  Bead:      14 positions{angstrom}  cell{angstrom}
       E  5.36420e+00  2.37255e+01  1.49448e+01
       E -2.56523e+00  7.36799e+01  3.49440e+00
       E -3.76251e+01  4.41925e+01  3.50912e+01
3
# CELL(abcABC): 1322.94304  1322.94304  1322.94304    90.00000    90.00000    90.00000  Step:        1800  Bead:      14 positions{angstrom}  cell{angstrom}
       E  1.74990e+01  4.32408e+01  1.48539e+01
       E -4.51224e+01  5.69030e+01  1.21471e+01
       E -8.94986e+01  7.28725e+01  3.01594e+01
3
# CELL(abcABC): 1322.94304  1322.94304  1322.94304    90.00000    90.00000    90.00000  Step:        1900  Bead:      14 positions{angstrom}  cell{angstrom}
       E  6.79475e+00  1.88482e+01  5.05441e+01
       E -6.87869e+01  4.39828e+01 -5.01322e+00
       E -3.54194e+01  5.99824e+01  4.69095e+01
3
# CELL(abcABC): 1322.94304  1322.94304  1322.94304    90.00000    90.00000    90.00000  Step:        2000  Bead:      14 positions{angstrom}  cell{angstrom}
       E -3.16469e+01  2.30225e+00  4.22822e+01
       E -4.99223e+01  3.30398e+01  1.89077e+01
       E -8.68501e+01  1.05631e+02  3.69855e+01
3
# CELL(abcABC): 1322.94304  1322.94304  1322.94304    90.00000    90.00000    90.00000  Step:        2100  Bead:      14 positions{angstrom}  cell{angstrom}
       E -3.27770e+01 -5.39695e+01  6.37270e+01
       E -3.66590e+01  3.63148e+01 -1.39846e+01
       E -7.30394e+01  8.05875e+01  2.79972e+01
3
# CELL(abcABC): 1322.94304  1322.94304  1322.94304    90.00000    90.00000    90.00000  Step:        2200  Bead:      14 positions{angstrom}  cell{angstrom}
       E -2.68898e+01 -5.90065e+01  6.58827e+01
       E -1.55737e+01 -3.44851e+01 -1.02355e+01
       E -5.56875e+01  7.45170e+01  9.76753e+00
3
# CELL(abcABC): 1322.94304  1322.94304  1322.94304    90.00000    90.00000    90.00000  Step:        2300  Bead:      14 positions{angstrom}  cell{angstrom}
       E -4.43953e+01 -6.22827e+01  4.47017e+01
       E -1.73316e+01 -3.46729e+01  1.16385e+01
       E -3.82620e+01  5.13466e+01  5.00500e+01
3
# CELL(abcABC): 1322.94304  1322.94304  1322.94304    90.00000    90.00000    90.00000  Step:        2400  Bead:      14 positions{angstrom}  cell{angstrom}
       E -3.96111e+01 -5.95068e+01  3.45633e+01
       E  1.13185e+01 -1.24072e+01 -1.17932e+01
       E  7.36378e+00  4.94414e+01  4.36891e+01
3
# CELL(abcABC): 1322.94304  1322.94304  1322.94304    90.00000    90.00000    90.00000  Step:        2500  Bead:      14 positions{angstrom}  cell{angstrom}
       E -3.11774e+01 -2.58959e+01  3.01609e+01
       E  2.55038e+00 -5.36330e+01 -6.40330e+01
       E  8.07499e+00  2.02000e+01  2.48310e+01
3
# CELL(abcABC): 1322.94304  1322.94304  1322.94304    90.00000    90.00000    90.00000  Step:        2600  Bead:      14 positions{angstrom}  cell{angstrom}
       E -1.69981e+01 -1.16063e+01  3.88588e+01
       E -4.61595e+01 -4.98855e+01 -4.02345e+01
       E  1.36525e+01 -1.80755e+01  2.85130e+01
3
# CELL(abcABC): 1322.94304  1322.94304  1322.94304    90.00000    90.00000    90.00000  Step:        2700  Bead:      14 positions{angstrom}  cell{angstrom}
       E -3.18327e+01  2.60001e+01  2.05587e+01
       E -2.98257e+01 -3.40651e+01 -1.77110e+01
       E  2.31761e+01 -1.63671e+01  2.76101e+01
3
# CELL(abcABC): 1322.94304  1322.94304  1322.94304    90.00000    90.00000    90.00000  Step:        2800  Bead:      14 positions{angstrom}  cell{angstrom}
       E -2.31271e+01 -3.96649e+01  3.86192e+01
       E -5.81329e+01 -4.70583e+01 -2.04562e+01
       E  4.39367e+01 -1.30220e+01  3.62185e+01
3
# CELL(abcABC): 1322.94304  1322.94304  1322.94304    90.00000    90.00000    90.00000  Step:        2900  Bead:      14 positions{angstrom}  cell{angstrom}
       E -5.32421e+01 -1.62126e+01  2.10010e+01
       E -4.45088e+01 -8.66291e+01 -3.88570e+01
       E  4.81993e+00  1.62709e+01  1.83767e+01
3
# CELL(abcABC): 1322.94304  1322.94304  1322.94304    90.00000    90.00000    90.00000  Step:        3000  Bead:      14 positions{angstrom}  cell{angstrom}
       E -5.04952e+01 -1.93782e+01  2.12920e+01
       E -5.97783e+01 -8.65917e+01  4.42997e+00
       E  3.68451e+00  4.49552e+01 -3.61210e+00
3
# CELL(abcABC): 1322.94304  1322.94304  1322.94304    90.00000    90.00000    90.00000  Step:        3100  Bead:      14 positions{angstrom}  cell{angstrom}
       E -2.58529e+01 -2.47837e+01  1.74126e+01
       E -7.13169e+01 -5.73990e+01  3.95228e+01
       E  2.89608e+01  5.28414e+01  4.72478e+01
3
# CELL(abcABC): 1322.94304  1322.94304  1322.94304    90.00000    90.00000    90.00000  Step:        3200  Bead:      14 positions{angstrom}  cell{angstrom}
       E -1.76405e+01 -1.53621e+01  9.80136e+00
       E -1.00381e+02 -6.33502e+01  5.14511e+01
       E  7.68349e+01  7.24168e+01  3.52975e+01
3
# CELL(abcABC): 1322.94304  1322.94304  1322.94304    90.00000    90.00000    90.00000  Step:        3300  Bead:      14 positions{angstrom}  cell{angstrom}
       E -4.34957e+01 -4.08087e+01 -1.53604e+01
       E -8.71443e+01 -3.26664e+01  6.82903e+01
       E  1.07551e+01  8.27323e+01  5.33611e+01
3
# CELL(abcABC): 1322.94304  1322.94304  1322.94304    90.00000    90.00000    90.00000  Step:        3400  Bead:      14 positions{angstrom}  cell{angstrom}
       E -5.25722e+01  4.05831e+00  6.73453e+00
       E -8.40005e+01 -3.98986e+01  9.64834e+01
       E  3.09229e+01  9.03452e+01  3.94592e+01
3
# CELL(abcABC): 1322.94304  1322.94304  1322.94304    90.00000    90.00000    90.00000  Step:        3500  Bead:      14 positions{angstrom}  cell{angstrom}
       E -6.69718e+01  1.54241e+01  4.14810e+01
       E -4.19775e+01 -2.84633e+01  2.13769e+01
       E  4.73608e+00  6.76961e+01  3.60638e+01
3
# CELL(abcABC): 1322.94304  1322.94304  1322.94304    90.00000    90.00000    90.00000  Step:        3600  Bead:      14 positions{angstrom}  cell{angstrom}
       E -6.39421e+01  3.11306e+00  3.99032e+01
       E -1.17691e+01  1.67141e+00  1.74319e+01
       E  3.95653e+01  7.27944e+01  9.69803e+00
3
# CELL(abcABC): 1322.94304  1322.94304  1322.94304    90.00000    90.00000    90.00000  Step:        3700  Bead:      14 positions{angstrom}  cell{angstrom}
       E -7.57837e+01 -1.47144e+01 -1.99061e+01
       E -2.57723e+01 -3.18630e+01  1.18235e+01
       E -2.70613e+01  2.65117e+01 -6.11094e+00
3
# CELL(abcABC): 1322.94304  1322.94304  1322.94304    90.00000    90.00000    90.00000  Step:        3800  Bead:      14 positions{angstrom}  cell{angstrom}
       E -7.99923e+01 -4.02707e+01 -3.75482e+01
       E -2.45234e+01 -3.69390e+01 -2.10487e+01
       E -5.88769e+01  3.08635e+01 -1.00913e+01
3
# CELL(abcABC): 1322.94304  1322.94304  1322.94304    90.00000    90.00000    90.00000  Step:        3900  Bead:      14 positions{angstrom}  cell{angstrom}
       E -1.05547e+02  1.47367e+01 -3.55484e+01
       E -1.49445e+01 -1.14375e+01 -8.00877e+00
       E -3.68238e+01  3.65173e+01 -1.12151e+00
3
# CELL(abcABC): 1322.94304  1322.94304  1322.94304    90.00000    90.00000    90.00000  Step:        4000  Bead:      14 positions{angstrom}  cell{angstrom}
       E -1.06322e+02  5.77976e+01 -6.90083e+01
       E -3.37589e+01  1.21311e+01  3.34922e+01
       E -1.54820e+01  3.22481e+01  1.40435e+01
3
# CELL(abcABC): 1322.94304  1322.94304  1322.94304    90.00000    90.00000    90.00000  Step:        4100  Bead:      14 positions{angstrom}  cell{angstrom}
       E -8.44034e+01  6.64141e+01 -7.66294e+01
       E -2.55797e+01  3.38403e+01  3.60563e+01
       E  2.94896e+00  7.84531e-01  4.14015e+01
3
# CELL(abcABC): 1322.94304  1322.94304  1322.94304    90.00000    90.00000    90.00000  Step:        4200  Bead:      14 positions{angstrom}  cell{angstrom}
       E -4.13336e+01  5.37410e+01 -7.11587e+01
       E -2.36412e+01  3.74354e+01  5.55217e+01
       E  3.22508e+01  1.83156e+00  6.55353e+01
3
# CELL(abcABC): 1322.94304  1322.94304  1322.94304    90.00000    90.00000    90.00000  Step:        4300  Bead:      14 positions{angstrom}  cell{angstrom}
       E -9.93702e+01  5.02247e+01 -6.03642e+01
       E -6.08402e+01  5.51150e+01  6.69845e+01
       E -6.63427e-01  5.98025e+00  4.68132e+01
3
# CELL(abcABC): 1322.94304  1322.94304  1322.94304    90.00000    90.00000    90.00000  Step:        4400  Bead:      14 positions{angstrom}  cell{angstrom}
       E -6.92454e+01  1.72748e+01 -7.49620e+01
       E -2.45905e+01  7.33007e+01  2.33357e+01
       E -1.58623e+01 -3.38086e+01 -1.22101e+01
3
# CELL(abcABC): 1322.94304  1322.94304  1322.94304    90.00000    90.00000    90.00000  Step:        4500  Bead:      14 positions{angstrom}  cell{angstrom}
       E -7.81575e+01  7.01698e+00 -9.66161e+01
       E -7.12282e+01  1.02308e+02  5.39288e+00
       E -4.15524e+00 -2.78302e+01  3.31185e+01
3
# CELL(abcABC): 1322.94304  1322.94304  1322.94304    90.00000    90.00000    90.00000  Step:        4600  Bead:      14 positions{angstrom}  cell{angstrom}
       E -1.39583e+01  4.29485e+00 -1.03978e+02
       E -4.94922e+01  6.86400e+01 -1.06179e+01
       E  7.80243e+00 -2.19429e+01  2.00232e+01
3
# CELL(abcABC): 1322.94304  1322.94304  1322.94304    90.00000    90.00000    90.00000  Step:        4700  Bead:      14 positions{angstrom}  cell{angstrom}
       E -1.03295e+01  3.64527e+01 -4.03364e+01
       E -6.46719e+01  4.80656e+01 -2.35689e+01
       E  5.51654e+01 -1.37303e+01  7.88399e+00
3
# CELL(abcABC): 1322.94304  1322.94304  1322.94304    90.00000    90.00000    90.00000  Step:        4800  Bead:      14 positions{angstrom}  cell{angstrom}
       E  3.98776e+00  3.71268e+01 -2.38178e+01
       E -5.38844e+01  2.62524e+01 -1.51173e+01
       E  6.13567e+01 -4.84039e+00  8.76256e+00
3
# CELL(abcABC): 1322.94304  1322.94304  1322.94304    90.00000    90.00000    90.00000  Step:        4900  Bead:      14 positions{angstrom}  cell{angstrom}
       E  2.43477e+00  2.31146e+01  1.97407e+01
       E -4.16796e+01  2.54321e+01 -1.62108e+01
       E  3.12798e+01 -7.14562e-01 -1.25598e-01
3
# CELL(abcABC): 1322.94304  1322.94304  1322.94304    90.00000    90.00000    90.00000  Step:        5000  Bead:      14 positions{angstrom}  cell{angstrom}
       E -9.26745e+00  1.35400e+01 -1.16201e+00
       E -2.39599e+01 -5.18511e+00 -5.26531e+01
       E  1.96474e+01 -4.19277e+01 -1.46495e+01
3
# CELL(abcABC): 1322.94304  1322.94304  1322.94304    90.00000    90.00000    90.00000  Step:        5100  Bead:      14 positions{angstrom}  cell{angstrom}
       E -1.85186e+01  3.25073e+01  3.28056e+00
       E -3.42539e+01  2.09917e+01 -2.37304e+01
       E -8.16026e+00 -1.78930e+01 -2.14195e+01
3
# CELL(abcABC): 1322.94304  1322.94304  1322.94304    90.00000    90.00000    90.00000  Step:        5200  Bead:      14 positions{angstrom}  cell{angstrom}
       E  1.62478e+01  4.03357e+01  3.28542e+01
       E -2.78921e+01  2.02513e+01 -2.43545e+01
       E -1.79061e+01  2.54151e+01  5.00073e+00
3
# CELL(abcABC): 1322.94304  1322.94304  1322.94304    90.00000    90.00000    90.00000  Step:        5300  Bead:      14 positions{angstrom}  cell{angstrom}
       E  4.81154e-01  3.12068e+01  5.68596e+01
       E -4.87153e+01  3.50011e+01 -3.09373e+00
       E -1.24445e+01  3.35410e+01  3.18548e+01
3
# CELL(abcABC): 1322.94304  1322.94304  1322.94304    90.00000    90.00000    90.00000  Step:        5400  Bead:      14 positions{angstrom}  cell{angstrom}
       E  1.26547e+01 -8.51461e+00  3.62931e+01
       E -1.61775e+01  1.59125e+01 -2.36063e+01
       E -2.92254e+01  5.55021e+01  4.67805e+01
3
# CELL(abcABC): 1322.94304  1322.94304  1322.94304    90.00000    90.00000    90.00000  Step:        5500  Bead:      14 positions{angstrom}  cell{angstrom}
       E  2.45067e+01  9.66420e+00  2.89555e+01
       E -3.16066e+01 -1.92655e+01 -1.14597e+01
       E -2.87556e+01  1.07961e+01  4.93278e+01
3
# CELL(abcABC): 1322.94304  1322.94304  1322.94304    90.00000    90.00000    90.00000  Step:        5600  Bead:      14 positions{angstrom}  cell{angstrom}
       E -1.38875e+00  1.88701e+01  1.30963e+01
       E -2.78589e+01  3.55406e+00 -1.74729e+01
       E -4.57658e+01 -3.29260e+00  1.90816e+01
3
# CELL(abcABC): 1322.94304  1322.94304  1322.94304    90.00000    90.00000    90.00000  Step:        5700  Bead:      14 positions{angstrom}  cell{angstrom}
       E  9.28666e+00 -1.47974e+01  3.58584e+00
       E -3.14872e+01  5.07983e+01  1.09215e+01
       E -5.26406e+01  2.26002e+01  3.33117e+01
3
# CELL(abcABC): 1322.94304  1322.94304  1322.94304    90.00000    90.00000    90.00000  Step:        5800  Bead:      14 positions{angstrom}  cell{angstrom}
       E  1.19980e+01 -4.08856e+00 -2.38807e+01
       E -4.89690e+01  3.72025e+01 -3.71134e+01
       E -2.19633e+01  1.48447e+01  4.85446e-01
3
# CELL(abcABC): 1322.94304  1322.94304  1322.94304    90.00000    90.00000    90.00000  Step:        5900  Bead:      14 positions{angstrom}  cell{angstrom}
       E  1.45689e+01  7.03886e+00 -2.97303e+01
       E -2.21195e+01  1.33278e+01 -5.71027e+00
       E -1.30943e+01 -1.17130e+01  2.69939e+00
3
# CELL(abcABC): 1322.94304  1322.94304  1322.94304    90.00000    90.00000    90.00000  Step:        6000  Bead:      14 positions{angstrom}  cell{angstrom}
       E  3.83158e+01  1.71869e+01 -7.45526e+00
       E -1.01546e+01  1.01151e+01  1.52274e+01
       E -2.59765e+01  7.42410e+00  1.27339e+01
3
# CELL(abcABC): 1322.94304  1322.94304  1322.94304    90.00000    90.00000    90.00000  Step:        6100  Bead:      14 positions{angstrom}  cell{angstrom}
       E -2.01248e+01 -4.31776e+01 -3.21035e+01
       E  2.25237e+01  2.57295e+01  3.43483e+01
       E -2.76867e+01 -5.01843e-01  1.88794e+00
3
# CELL(abcABC): 1322.94304  1322.94304  1322.94304    90.00000    90.00000    90.00000  Step:        6200  Bead:      14 positions{angstrom}  cell{angstrom}
       E  1.71903e+01  7.69418e+00 -7.75177e+01
       E  6.09663e+01  4.33011e+01 -1.09610e+00
       E  8.05049e+00 -8.98671e+00 -3.95694e-01
3
# CELL(abcABC): 1322.94304  1322.94304  1322.94304    90.00000    90.00000    90.00000  Step:        6300  Bead:      14 positions{angstrom}  cell{angstrom}
       E  3.62291e+00 -4.70863e+01 -9.67707e+01
       E  9.75042e+01  7.80705e+00 -1.26635e+01
       E  8.73530e+00 -2.89637e+01 -1.44290e+01
3
# CELL(abcABC): 1322.94304  1322.94304  1322.94304    90.00000    90.00000    90.00000  Step:        6400  Bead:      14 positions{angstrom}  cell{angstrom}
       E  6.99391e-01 -6.65854e+01 -7.43026e+01
       E  7.43974e+01  3.22626e+01 -1.38448e+01
       E -6.94312e+00  4.93072e+00 -9.32019e+00
3
# CELL(abcABC): 1322.94304  1322.94304  1322.94304    90.00000    90.00000    90.00000  Step:        6500  Bead:      14 positions{angstrom}  cell{angstrom}
       E -1.37198e+01 -7.06781e+01 -8.87569e+01
       E  1.10546e+01  1.47504e+01 -1.92053e+01
       E  9.72563e+00 -2.67855e+01  3.87039e+00
3
# CELL(abcABC): 1322.94304  1322.94304  1322.94304    90.00000    90.00000    90.00000  Step:        6600  Bead:      14 positions{angstrom}  cell{angstrom}
       E -6.36195e+00 -6.38896e+01 -9.94771e+01
       E  1.80531e+01 -3.76299e+01 -3.71901e+01
       E  3.01832e+01 -3.12741e+01  5.00870e+00
3
# CELL(abcABC): 1322.94304  1322.94304  1322.94304    90.00000    90.00000    90.00000  Step:        6700  Bead:      14 positions{angstrom}  cell{angstrom}
       E -4.27973e+00 -8.30494e+01 -6.03505e+01
       E  2.92026e+01 -4.94058e+00 -4.89409e+00
       E -6.77546e+00 -5.13374e+00 -1.34043e+01
3
# CELL(abcABC): 1322.94304  1322.94304  1322.94304    90.00000    90.00000    90.00000  Step:        6800  Bead:      14 positions{angstrom}  cell{angstrom}
       E -4.21472e+00 -1.05711e+02 -5.83539e+01
       E  5.23238e+01 -2.00652e+01 -5.03666e+00
       E  2.24015e+01  2.47741e+01  1.31113e+01
3
# CELL(abcABC): 1322.94304  1322.94304  1322.94304    90.00000    90.00000    90.00000  Step:        6900  Bead:      14 positions{angstrom}  cell{angstrom}
       E  3.18233e+00 -6.45216e+01 -5.26726e+01
       E  1.38291e+01 -2.07055e+01 -9.21679e+00
       E -1.62045e+01  4.84761e+01  1.51957e+01
3
# CELL(abcABC): 1322.94304  1322.94304  1322.94304    90.00000    90.00000    90.00000  Step:        7000  Bead:      14 positions{angstrom}  cell{angstrom}
       E  3.77570e+01 -7.85349e+01 -3.11241e+01
       E  7.20594e+00 -2.88968e+01  3.19889e+01
       E -8.08937e+00  5.76130e+01  2.90550e+01
3
# CELL(abcABC): 1322.94304  1322.94304  1322.94304    90.00000    90.00000    90.00000  Step:        7100  Bead:      14 positions{angstrom}  cell{angstrom}
       E  3.44001e+01 -4.26809e+01 -2.31180e+01
       E -3.64753e+01 -1.19250e+01  2.27878e+01
       E  2.99790e+01  5.32753e+01 -4.91157e-01
3
# CELL(abcABC): 1322.94304  1322.94304  1322.94304    90.00000    90.00000    90.00000  Step:        7200  Bead:      14 positions{angstrom}  cell{angstrom}
       E  2.89671e+01 -1.83133e+01 -5.76988e+00
       E -5.03532e+01 -7.57011e+00  3.85010e+01
       E  3.94542e+01  2.31048e+01 -1.92927e+01
3
# CELL(abcABC): 1322.94304  1322.94304  1322.94304    90.00000    90.00000    90.00000  Step:        7300  Bead:      14 positions{angstrom}  cell{angstrom}
       E  2.04983e+01 -3.87819e+01 -3.32115e+01
       E -3.94905e+01  4.19220e+01  3.98323e+01
       E  3.66361e+01  1.67439e+01 -2.08449e+01
3
# CELL(abcABC): 1322.94304  1322.94304  1322.94304    90.00000    90.00000    90.00000  Step:        7400  Bead:      14 positions{angstrom}  cell{angstrom}
       E  3.88319e+01 -2.89751e+01 -7.78798e+01
       E -4.30037e+01  2.63448e+01  7.40280e+00
       E  3.85691e+01  4.03191e+01 -1.87751e+01
3
# CELL(abcABC): 1322.94304  1322.94304  1322.94304    90.00000    90.00000    90.00000  Step:        7500  Bead:      14 positions{angstrom}  cell{angstrom}
       E  3.18329e-01 -7.79397e+01 -3.87577e+01
       E -5.83196e+01  5.47762e-01  6.27014e+00
       E  4.90446e+01  3.87102e+01  3.83172e-01
3
# CELL(abcABC): 1322.94304  1322.94304  1322.94304    90.00000    90.00000    90.00000  Step:        7600  Bead:      14 positions{angstrom}  cell{angstrom}
       E  1.68639e+01 -6.18801e+01 -4.61787e+01
       E -1.51504e+01 -3.08079e+01 -1.33002e+01
       E  5.35985e+01  3.16391e+01 -1.67892e+01
3
# CELL(abcABC): 1322.94304  1322.94304  1322.94304    90.00000    90.00000    90.00000  Step:        7700  Bead:      14 positions{angstrom}  cell{angstrom}
       E  3.50734e+01 -8.62976e+01 -1.35263e+01
       E -1.71244e+01 -4.45348e+01 -5.29157e+01
       E  4.06369e+01  4.78366e+01 -3.79091e+01
3
# CELL(abcABC): 1322.94304  1322.94304  1322.94304    90.00000    90.00000    90.00000  Step:        7800  Bead:      14 positions{angstrom}  cell{angstrom}
       E -5.05841e+00 -7.60785e+01 -5.77565e+01
       E -1.16810e+01 -5.09788e+01 -2.47464e+01
       E  3.99110e+01  4.51599e+01 -5.38834e+01
3
# CELL(abcABC): 1322.94304  1322.94304  1322.94304    90.00000    90.00000    90.00000  Step:        7900  Bead:      14 positions{angstrom}  cell{angstrom}
       E  2.56344e+01 -3.70289e+01 -3.98114e+01
       E  2.27561e+00 -8.67555e+00 -2.54729e+01
       E  2.04153e+01  4.73660e+00 -3.81892e+01
3
# CELL(abcABC): 1322.94304  1322.94304  1322.94304    90.00000    90.00000    90.00000  Step:        8000  Bead:      14 positions{angstrom}  cell{angstrom}
       E  1.71100e+01 -4.10967e+01 -6.32770e+01
       E -3.38937e+01  3.11599e+01 -8.38726e+00
       E  2.36777e+01 -5.62179e+00 -4.52849e+01
3
# CELL(abcABC): 1322.94304  1322.94304  1322.94304    90.00000    90.00000    90.00000  Step:        8100  Bead:      14 positions{angstrom}  cell{angstrom}
       E -1.46516e+00  1.36145e+01 -5.17180e+01
       E -6.70213e+00  1.82930e+01 -1.65145e+01
       E  1.19490e+01 -1.23576e+00 -5.95167e+00
3
# CELL(abcABC): 1322.94304  1322.94304  1322.94304    90.00000    90.00000    90.00000  Step:        8200  Bead:      14 positions{angstrom}  cell{angstrom}
       E  1.65637e+01  4.32878e+01 -5.01300e+01
       E -2.77951e+01  7.77746e-01 -3.09834e+01
       E  9.34706e+00 -1.21508e+01  3.20100e+01
3
# CELL(abcABC): 1322.94304  1322.94304  1322.94304    90.00000    90.00000    90.00000  Step:        8300  Bead:      14 positions{angstrom}  cell{angstrom}
       E  3.57162e+01  4.27311e+01 -5.30763e+01
       E -1.41358e+01  4.30887e+01  6.67710e+00
       E  3.65970e+01 -5.66937e+01  7.85520e+01
3
# CELL(abcABC): 1322.94304  1322.94304  1322.94304    90.00000    90.00000    90.00000  Step:        8400  Bead:      14 positions{angstrom}  cell{angstrom}
       E -5.06865e+00  3.38709e+00 -1.58019e+01
       E  1.42933e+01  3.15743e+01 -2.79047e+01
       E  9.13486e+00 -3.63719e+01  6.74356e+01
3
# CELL(abcABC): 1322.94304  1322.94304  1322.94304    90.00000    90.00000    90.00000  Step:        8500  Bead:      14 positions{angstrom}  cell{angstrom}
       E -5.42576e+00  7.27059e+00 -9.38520e+00
       E  5.98585e+01  1.86405e+01 -1.46673e+01
       E  1.60856e+01 -2.24763e+01  3.23603e+01
3
# CELL(abcABC): 1322.94304  1322.94304  1322.94304    90.00000    90.00000    90.00000  Step:        8600  Bead:      14 positions{angstrom}  cell{angstrom}
       E -1.52506e+01 -7.94937e+00 -1.83330e+01
       E  1.07164e+01  8.16693e+00 -4.52567e+01
       E  5.55825e+00 -1.08173e+01  2.12997e+01
3
# CELL(abcABC): 1322.94304  1322.94304  1322.94304    90.00000    90.00000    90.00000  Step:        8700  Bead:      14 positions{angstrom}  cell{angstrom}
       E -1.47654e+01 -1.14831e+01 -1.10336e+01
       E  1.54406e+01  2.85724e+01 -4.43543e+01
       E  1.31858e+00 -3.86226e+01  5.39162e+01
3
# CELL(abcABC): 1322.94304  1322.94304  1322.94304    90.00000    90.00000    90.00000  Step:        8800  Bead:      14 positions{angstrom}  cell{angstrom}
       E -4.73760e+01  1.19786e+01  3.55425e+01
       E  1.13332e+01 -7.62346e-01  6.30471e+00
       E  3.22188e+01 -6.19366e+01  3.24905e+01
3
# CELL(abcABC): 1322.94304  1322.94304  1322.94304    90.00000    90.00000    90.00000  Step:        8900  Bead:      14 positions{angstrom}  cell{angstrom}
       E -4.55514e+01  5.63361e+01  3.84474e+01
       E -1.01519e+01 -1.54945e+00  1.52094e+01
       E  3.08411e+01 -3.89102e+01  5.04602e+01
3
# CELL(abcABC): 1322.94304  1322.94304  1322.94304    90.00000    90.00000    90.00000  Step:        9000  Bead:      14 positions{angstrom}  cell{angstrom}
       E -2.81959e+01  4.47526e+01  1.86468e+01
       E -8.01895e+00 -2.24158e+00  4.89911e+01
       E  3.83364e+01 -8.25052e+00  2.50696e+01
3
# CELL(abcABC): 1322.94304  1322.94304  1322.94304    90.00000    90.00000    90.00000  Step:        9100  Bead:      14 positions{angstrom}  cell{angstrom}
       E  1.50559e+01  1.43789e+01  3.34331e+01
       E -3.29346e+01  1.89804e+01  8.33756e+01
       E  2.75314e+01 -1.64048e+01  4.76415e+01
3
# CELL(abcABC): 1322.94304  1322.94304  1322.94304    90.00000    90.00000    90.00000  Step:        9200  Bead:      14 positions{angstrom}  cell{angstrom}
       E  4.56665e+01  2.60358e+01  1.93971e+01
       E -3.28023e+01  3.15739e+00  5.72081e+01
       E  1.38369e+01 -6.72259e+01  1.13826e+01
3
# CELL(abcABC): 1322.94304  1322.94304  1322.94304    90.00000    90.00000    90.00000  Step:        9300  Bead:      14 positions{angstrom}  cell{angstrom}
       E  1.36343e+01  3.31515e+01 -1.93414e+00
       E -4.17391e+01 -1.44331e+01  1.32722e+01
       E  3.94397e+00 -6.74656e+01 -1.06980e+01
3
# CELL(abcABC): 1322.94304  1322.94304  1322.94304    90.00000    90.00000    90.00000  Step:        9400  Bead:      14 positions{angstrom}  cell{angstrom}
       E  3.25260e+01  7.80527e+01 -3.19320e+01
       E -4.20326e+01 -3.38965e+01 -9.83037e-01
       E  3.49643e+01 -3.99701e+01 -2.04355e+01
3
# CELL(abcABC): 1322.94304  1322.94304  1322.94304    90.00000    90.00000    90.00000  Step:        9500  Bead:      14 positions{angstrom}  cell{angstrom}
       E  1.78563e+01  5.01026e+01 -6.88523e+01
       E -8.06667e+00 -4.73801e+01  3.52735e+01
       E  4.26882e+01 -3.35293e+01  2.90599e+01
3
# CELL(abcABC): 1322.94304  1322.94304  1322.94304    90.00000    90.00000    90.00000  Step:        9600  Bead:      14 positions{angstrom}  cell{angstrom}
       E  1.80975e+01  3.45456e+01 -3.86460e+01
       E  3.89177e+01 -3.38604e+01  4.35167e+01
       E  3.83840e+01 -2.42400e+01  3.72213e+01
3
# CELL(abcABC): 1322.94304  1322.94304  1322.94304    90.00000    90.00000    90.00000  Step:        9700  Bead:      14 positions{angstrom}  cell{angstrom}
       E  1.33030e+01 -4.74867e+01 -1.68505e+01
       E  5.66139e+01 -6.75199e+01  2.34249e+01
       E  2.40580e+01  1.48444e+00  6.40289e+00
3
# CELL(abcABC): 1322.94304  1322.94304  1322.94304    90.00000    90.00000    90.00000  Step:        9800  Bead:      14 positions{angstrom}  cell{angstrom}
       E -3.59646e+01 -5.34538e+01 -4.34650e+01
       E  3.61438e+01 -8.60965e+01 -2.35529e+01
       E  3.31733e+01 -1.77332e+01  9.26156e+00
3