3
# CELL(abcABC): 1322.94304  1322.94304  1322.94304    90.00000    90.00000    90.00000  Step:           0  Bead:       0 positions{angstrom}  cell{angstrom}
       E  3.59841e+01  2.96339e+01  3.96883e+01
       E  2.48713e+01  2.32838e+01  3.28090e+01
       E  0.00000e+00 -2.75172e+01  6.35013e+00
3
# CELL(abcABC): 1322.94304  1322.94304  1322.94304    90.00000    90.00000    90.00000  Step:         100  Bead:       0 positions{angstrom}  cell{angstrom}
       E -3.06920e+01 -3.55859e+01  1.56152e+01
       E -6.56345e+00  3.41691e-01 -2.09630e+01
       E  2.88791e+01  1.85635e+01  1.33762e+01
3
# CELL(abcABC): 1322.94304  1322.94304  1322.94304    90.00000    90.00000    90.00000  Step:         200  Bead:       0 positions{angstrom}  cell{angstrom}
       E -1.92755e+01 -1.01137e+01  3.67869e+01
       E  3.82087e+01  1.97473e+01  8.38860e-01
       E -1.44674e+01  2.67280e+01  1.77951e+01
3
# CELL(abcABC): 1322.94304  1322.94304  1322.94304    90.00000    90.00000    90.00000  Step:         300  Bead:       0 positions{angstrom}  cell{angstrom}
       E  4.22778e+01 -6.07577e+00 -3.97810e+01
       E  3.38902e+01 -2.16881e+00  2.03742e+01
       E -1.13778e+01  4.71709e+01 -3.27648e+00
3
# CELL(abcABC): 1322.94304  1322.94304  1322.94304    90.00000    90.00000    90.00000  Step:         400  Bead:       0 positions{angstrom}  cell{angstrom}
       E  3.65654e+01  1.88257e+01 -2.69136e+01
       E  3.68112e+01  1.41842e+00  4.52887e+00
       E -3.26591e+00  3.20897e+01  1.13883e+01
3
# CELL(abcABC): 1322.94304  1322.94304  1322.94304    90.00000    90.00000    90.00000  Step:         500  Bead:       0 positions{angstrom}  cell{angstrom}
       E  8.98643e+00  3.18805e+00 -1.66124e+01
       E  1.68929e+01  1.27435e+01  3.07279e+01
       E  1.62216e+00  2.06550e+01  2.57919e+01
3
# CELL(abcABC): 1322.94304  1322.94304  1322.94304    90.00000    90.00000    90.00000  Step:         600  Bead:       0 positions{angstrom}  cell{angstrom}
       E -6.34972e+00 -1.17351e+01 -2.96932e+01
       E -6.36295e+00 -1.12979e+01  3.06968e+01
       E -2.48155e+01  3.96885e+01  2.99109e+01
3
# CELL(abcABC): 1322.94304  1322.94304  1322.94304    90.00000    90.00000    90.00000  Step:         700  Bead:       0 positions{angstrom}  cell{angstrom}
       E  1.08643e+00  6.05380e+00 -3.39478e+01
       E -3.48229e+01 -2.82405e+01  2.33251e+01
       E -2.64370e+00  1.83155e+01  4.19010e+01
3
# CELL(abcABC): 1322.94304  1322.94304  1322.94304    90.00000    90.00000    90.00000  Step:         800  Bead:       0 positions{angstrom}  cell{angstrom}
       E  2.54950e+01  2.33122e+01  1.41853e+00
       E  9.19058e+00  4.17139e+00  1.41530e+01
       E -4.60667e+01  2.99028e+01  6.22710e+01
3
# CELL(abcABC): 1322.94304  1322.94304  1322.94304    90.00000    90.00000    90.00000  Step:         900  Bead:       0 positions{angstrom}  cell{angstrom}
       E  2.03646e+01 -5.06088e-01 -2.31360e+01
       E  4.29011e+01 -7.54021e+00  3.66765e+01
       E -7.42624e+01  6.21518e+01  9.11166e+01
3
# CELL(abcABC): 1322.94304  1322.94304  1322.94304    90.00000    90.00000    90.00000  Step:        1000  Bead:       0 positions{angstrom}  cell{angstrom}
       E  4.09880e+00 -1.55047e+01 -1.61776e+01
       E  3.36084e+00 -2.78392e-02 -4.14027e+01
       E -3.49456e+01  1.95053e+01  9.59532e+01
3
# CELL(abcABC): 1322.94304  1322.94304  1322.94304    90.00000    90.00000    90.00000  Step:        1100  Bead:       0 positions{angstrom}  cell{angstrom}
       E  2.51103e+01  3.12219e+01 -2.42992e+01
       E  3.22339e+01  9.02299e+00 -3.44191e+01
       E -4.01554e+01  6.41006e+00  7.03211e+01
3
# CELL(abcABC): 1322.94304  1322.94304  1322.94304    90.00000    90.00000    90.00000  Step:        1200  Bead:       0 positions{angstrom}  cell{angstrom}
       E -4.02700e+00  5.16232e+01 -3.05950e+01
       E  9.47770e+00 -1.39792e+01 -5.20970e+01
       E  3.52492e+01  2.05347e+01  1.35543e+01
3
# CELL(abcABC): 1322.94304  1322.94304  1322.94304    90.00000    90.00000    90.00000  Step:        1300  Bead:       0 positions{angstrom}  cell{angstrom}
       E -5.37479e+00  2.55927e+01 -6.65315e+01
       E  1.21643e+01 -2.83919e+01 -4.63597e+01
       E -3.40408e+01  2.29157e+01  4.13331e+00
3
# CELL(abcABC): 1322.94304  1322.94304  1322.94304    90.00000    90.00000    90.00000  Step:        1400  Bead:       0 positions{angstrom}  cell{angstrom}
       E -4.35550e+01  6.29298e+00 -5.40057e+01
       E -1.10752e+01 -7.29346e+00 -4.89280e+01
       E -4.61058e+01  5.40791e+01  1.37491e+01
3
# CELL(abcABC): 1322.94304  1322.94304  1322.94304    90.00000    90.00000    90.00000  Step:        1500  Bead:       0 positions{angstrom}  cell{angstrom}
       E -4.35515e+01  5.35762e+01 -7.76919e+01
       E -5.40168e+01 -3.82396e+01 -2.80173e+01
       E -6.87404e+00  6.01331e+01  5.23350e+01
3
# CELL(abcABC): 1322.94304  1322.94304  1322.94304    90.00000    90.00000    90.00000  Step:        1600  Bead:       0 positions{angstrom}  cell{angstrom}
       E -3.34046e+01  5.55311e+01 -6.01370e+01
       E -2.44918e+01 -5.42438e+01  1.79620e+01
       E -1.67852e+01  5.97591e+01  2.02501e+01
3
# CELL(abcABC): 1322.94304  1322.94304  1322.94304    90.00000    90.00000    90.00000  Step:        1700  Bead:       0 positions{angstrom}  cell{angstrom}
       E -4.27759e+01  2.30049e+01 -1.24247e+01
       E -2.74033e+01 -2.29711e+01 -5.87075e+00
       E -5.04586e+01  4.95167e+01  9.05633e-01
3
# CELL(abcABC): 1322.94304  1322.94304  1322.94304    90.00000    90.00000    90.00000  Step:        1800  Bead:       0 positions{angstrom}  cell{angstrom}
       E -1.10784e+01  3.77879e+01  8.97443e+00
       E -4.27809e+01 -1.44984e+01  1.71056e+01
       E -4.29979e+01  1.45325e+01  1.89455e+01
3
# CELL(abcABC): 1322.94304  1322.94304  1322.94304    90.00000    90.00000    90.00000  Step:        1900  Bead:       0 positions{angstrom}  cell{angstrom}
       E -4.23159e+01  3.18916e+01  3.11443e+01
       E -3.80875e+01 -2.16467e+01 -1.35390e+01
       E -6.61724e+01  1.56376e+01  2.07544e+01
3
# CELL(abcABC): 1322.94304  1322.94304  1322.94304    90.00000    90.00000    90.00000  Step:        2000  Bead:       0 positions{angstrom}  cell{angstrom}
       E -3.48904e+01 -1.85319e+01  4.66367e+01
       E -6.96214e+00 -2.49476e+01  1.12905e+01
       E -5.37560e+01  4.85031e+01  5.92678e+00
3
# CELL(abcABC): 1322.94304  1322.94304  1322.94304    90.00000    90.00000    90.00000  Step:        2100  Bead:       0 positions{angstrom}  cell{angstrom}
       E -4.05781e+01 -6.03881e+01  9.67534e+00
       E -5.31527e+01 -2.15855e+00 -3.66717e+00
       E -6.82354e+01  5.91992e+01  1.56351e+00
3
# CELL(abcABC): 1322.94304  1322.94304  1322.94304    90.00000    90.00000    90.00000  Step:        2200  Bead:       0 positions{angstrom}  cell{angstrom}
       E  2.49431e+01 -1.08785e+02  2.30960e-01
       E -4.69729e+01 -7.61280e+00  5.82654e+00
       E -9.94151e+01  5.94106e+01  2.70801e+01
3
# CELL(abcABC): 1322.94304  1322.94304  1322.94304    90.00000    90.00000    90.00000  Step:        2300  Bead:       0 positions{angstrom}  cell{angstrom}
       E  9.55879e+00 -6.03936e+01 -2.50380e+01
       E -4.67223e+01 -2.82180e+01 -1.43887e+01
       E -3.26330e+01  6.71375e+01  3.74931e+01
3
# CELL(abcABC): 1322.94304  1322.94304  1322.94304    90.00000    90.00000    90.00000  Step:        2400  Bead:       0 positions{angstrom}  cell{angstrom}
       E  1.54391e+01 -4.44331e+01  2.60537e+01
       E -1.52695e+01 -3.76064e+01 -2.59604e+01
       E -1.18578e+01  5.50833e+01  2.72629e+01
3
# CELL(abcABC): 1322.94304  1322.94304  1322.94304    90.00000    90.00000    90.00000  Step:        2500  Bead:       0 positions{angstrom}  cell{angstrom}
       E  9.87845e-01 -2.53813e+00  4.66112e+01
       E -4.05022e+00 -3.38980e+01 -2.57594e+00
       E -4.38595e+01 -1.79216e+00  6.10173e+01
3
# CELL(abcABC): 1322.94304  1322.94304  1322.94304    90.00000    90.00000    90.00000  Step:        2600  Bead:       0 positions{angstrom}  cell{angstrom}
       E -2.19398e+01 -3.19156e+00  9.38906e+01
       E -4.09735e+01 -7.36535e+01 -1.49968e+01
       E  2.07553e+01 -1.28639e+01  5.79382e+01
3
# CELL(abcABC): 1322.94304  1322.94304  1322.94304    90.00000    90.00000    90.00000  Step:        2700  Bead:       0 positions{angstrom}  cell{angstrom}
       E -2.30521e+01 -3.98522e+01  9.04050e+01
       E -4.48196e+01 -5.03842e+01  1.65583e+00
       E -6.79753e+00 -2.06794e+01  3.58238e+01
3
# CELL(abcABC): 1322.94304  1322.94304  1322.94304    90.00000    90.00000    90.00000  Step:        2800  Bead:       0 positions{angstrom}  cell{angstrom}
       E -1.94541e+01 -6.35836e+01  7.15065e+01
       E -4.57470e+01 -4.69287e+01 -9.07206e+00
       E  1.40684e+01 -1.09281e+01  5.33266e+01
3
# CELL(abcABC): 1322.94304  1322.94304  1322.94304    90.00000    90.00000    90.00000  Step:        2900  Bead:       0 positions{angstrom}  cell{angstrom}
       E -4.92431e+01 -1.00068e+02  5.84458e+01
       E -3.25680e+01 -5.33755e+01  1.99282e+01
       E  4.85205e+00 -1.21659e+01  5.51457e+01
3
# CELL(abcABC): 1322.94304  1322.94304  1322.94304    90.00000    90.00000    90.00000  Step:        3000  Bead:       0 positions{angstrom}  cell{angstrom}
       E -7.23443e+01 -3.81711e+01  3.61654e+01
       E -3.90891e+01 -7.07346e+01  1.29580e+01
       E  4.76398e+01 -9.87661e+00  4.71786e+01
3
# CELL(abcABC): 1322.94304  1322.94304  1322.94304    90.00000    90.00000    90.00000  Step:        3100  Bead:       0 positions{angstrom}  cell{angstrom}
       E -9.43123e+01 -3.01336e+01  3.07176e+01
       E -2.36159e+01 -6.30062e+01  4.77182e+01
       E  4.74601e+01  7.33066e+00  4.37544e+00
3
# CELL(abcABC): 1322.94304  1322.94304  1322.94304    90.00000    90.00000    90.00000  Step:        3200  Bead:       0 positions{angstrom}  cell{angstrom}
       E -8.10658e+01 -6.31129e+01  4.05206e+01
       E -5.63870e+01 -6.55558e+01  4.28452e+01
       E  8.57289e+01  2.46195e+01  5.62993e+01
3
# CELL(abcABC): 1322.94304  1322.94304  1322.94304    90.00000    90.00000    90.00000  Step:        3300  Bead:       0 positions{angstrom}  cell{angstrom}
       E -7.41509e+01 -1.83591e+01  8.38929e+01
       E -7.22382e+01 -3.48494e+01  4.80386e+01
       E  6.47987e+01  7.36911e+01  8.61045e+01
3
# CELL(abcABC): 1322.94304  1322.94304  1322.94304    90.00000    90.00000    90.00000  Step:        3400  Bead:       0 positions{angstrom}  cell{angstrom}
       E -8.53108e+01 -2.19040e+01  6.95408e+01
       E -5.37589e+01 -2.84634e+01  6.56058e+01
       E  4.51893e+01  6.37575e+01  4.24137e+01
3
# CELL(abcABC): 1322.94304  1322.94304  1322.94304    90.00000    90.00000    90.00000  Step:        3500  Bead:       0 positions{angstrom}  cell{angstrom}
       E -1.05969e+02 -3.10803e+01  3.41677e+01
       E -6.25126e+01 -4.94616e+01  3.86272e+01
       E -1.77101e+00  7.19427e+01  3.11917e+01
3
# CELL(abcABC): 1322.94304  1322.94304  1322.94304    90.00000    90.00000    90.00000  Step:        3600  Bead:       0 positions{angstrom}  cell{angstrom}
       E -8.97347e+01 -6.92848e+01 -7.82976e+00
       E -7.27901e+01 -4.79892e+01  2.81322e+01
       E -4.81408e+01  7.59995e+00  1.09292e+01
3
# CELL(abcABC): 1322.94304  1322.94304  1322.94304    90.00000    90.00000    90.00000  Step:        3700  Bead:       0 positions{angstrom}  cell{angstrom}
       E -5.34010e+01 -4.22113e+01 -2.94469e+01
       E -2.61547e+01 -3.19142e+01  1.46736e+01
       E -5.35683e+01  1.81515e+01  1.90422e+01
3
# CELL(abcABC): 1322.94304  1322.94304  1322.94304    90.00000    90.00000    90.00000  Step:        3800  Bead:       0 positions{angstrom}  cell{angstrom}
       E -7.23860e+01 -4.93237e+01  3.07126e+01
       E -1.99532e+01 -3.32355e+01 -3.66685e+01
       E -1.82556e+01 -3.36892e+01  1.39164e+01
3
# CELL(abcABC): 1322.94304  1322.94304  1322.94304    90.00000    90.00000    90.00000  Step:        3900  Bead:       0 positions{angstrom}  cell{angstrom}
       E -1.12483e+02 -4.74001e+00 -1.01885e+01
       E -4.42388e+01 -2.51978e+01 -1.45391e+01
       E  4.88008e+00 -3.63837e+01  4.85022e+01
3
# CELL(abcABC): 1322.94304  1322.94304  1322.94304    90.00000    90.00000    90.00000  Step:        4000  Bead:       0 positions{angstrom}  cell{angstrom}
       E -1.12644e+02  1.44667e+01 -1.33248e+01
       E -4.52420e+01 -1.77583e+01 -2.83788e+01
       E  4.62969e+00 -4.53991e+01  1.35039e+01
3
# CELL(abcABC): 1322.94304  1322.94304  1322.94304    90.00000    90.00000    90.00000  Step:        4100  Bead:       0 positions{angstrom}  cell{angstrom}
       E -1.10925e+02  4.48949e+01 -2.34306e+01
       E -7.21114e+00  2.85237e+01  1.14993e+01
       E -3.08813e+01  7.22154e+00 -2.26958e+01
3
# CELL(abcABC): 1322.94304  1322.94304  1322.94304    90.00000    90.00000    90.00000  Step:        4200  Bead:       0 positions{angstrom}  cell{angstrom}
       E -6.51516e+01  1.70246e+01 -5.66070e+01
       E -4.65275e+01  4.08997e+01  1.03612e+01
       E -3.74000e+01 -4.57286e+01 -8.07246e+00
3
# CELL(abcABC): 1322.94304  1322.94304  1322.94304    90.00000    90.00000    90.00000  Step:        4300  Bead:       0 positions{angstrom}  cell{angstrom}
       E -6.85928e+01  6.70565e+00 -9.64765e+01
       E -3.26578e+01  4.18160e+01 -9.89811e-01
       E -6.63186e+00 -4.15343e+01  2.19282e+01
3
# CELL(abcABC): 1322.94304  1322.94304  1322.94304    90.00000    90.00000    90.00000  Step:        4400  Bead:       0 positions{angstrom}  cell{angstrom}
       E -4.53301e+01  5.29483e+01 -8.83954e+01
       E -6.14329e+01  7.75976e+01  4.14234e+01
       E -1.54662e+01 -1.56508e+01  2.50577e+01
3
# CELL(abcABC): 1322.94304  1322.94304  1322.94304    90.00000    90.00000    90.00000  Step:        4500  Bead:       0 positions{angstrom}  cell{angstrom}
       E -5.25008e+01  3.46479e+01 -6.04071e+01
       E -7.50066e+01  6.27989e+01  3.50977e+01
       E -2.04623e+00 -8.43765e+00  3.66143e+00
3
# CELL(abcABC): 1322.94304  1322.94304  1322.94304    90.00000    90.00000    90.00000  Step:        4600  Bead:       0 positions{angstrom}  cell{angstrom}
       E -4.36919e+01  3.86525e+01 -1.19593e+00
       E -3.38659e+01  4.36265e+01  3.81271e+01
       E  3.05625e+01 -2.59698e+01  2.49851e+01
3
# CELL(abcABC): 1322.94304  1322.94304  1322.94304    90.00000    90.00000    90.00000  Step:        4700  Bead:       0 positions{angstrom}  cell{angstrom}
       E -2.05173e+01  1.76777e+01 -5.66575e+01
       E -4.98443e+01  7.17232e+00 -9.60782e+00
       E  6.77160e+00 -1.76632e+01  4.17434e+01
3
# CELL(abcABC): 1322.94304  1322.94304  1322.94304    90.00000    90.00000    90.00000  Step:        4800  Bead:       0 positions{angstrom}  cell{angstrom}
       E  1.54384e+01  3.99341e+01 -2.50409e+01
       E -6.16441e+01 -2.73748e+01 -3.94658e+01
       E  1.83339e+01 -1.10872e+01 -1.66681e+01
3
# CELL(abcABC): 1322.94304  1322.94304  1322.94304    90.00000    90.00000    90.00000  Step:        4900  Bead:       0 positions{angstrom}  cell{angstrom}
       E  5.02383e+01  2.72720e+01 -4.49403e+01
       E -6.54620e+01 -5.12424e+01 -1.30610e+01
       E  2.56162e+01 -1.12427e+01 -6.45286e+01
3
# CELL(abcABC): 1322.94304  1322.94304  1322.94304    90.00000    90.00000    90.00000  Step:        5000  Bead:       0 positions{angstrom}  cell{angstrom}
       E  7.33288e+01  8.61089e+00 -2.48881e+01
       E -6.42130e+01 -5.22166e+01 -4.28132e+01
       E  2.08213e+01 -2.15765e+01 -2.95565e+01
3
# CELL(abcABC): 1322.94304  1322.94304  1322.94304    90.00000    90.00000    90.00000  Step:        5100  Bead:       0 positions{angstrom}  cell{angstrom}
       E  7.95750e+01  5.99669e+01  1.56981e+01
       E -6.75170e+01 -4.52640e+01 -2.84070e+01
       E  2.57715e+01 -1.02308e+01 -7.20569e+00
3
# CELL(abcABC): 1322.94304  1322.94304  1322.94304    90.00000    90.00000    90.00000  Step:        5200  Bead:       0 positions{angstrom}  cell{angstrom}
       E  3.92847e+01  2.59098e+01 -1.08636e+01
       E -4.86048e+01  3.14990e+00 -3.52135e+00
       E  3.15584e+00  2.10782e+01 -3.44020e+01
3
# CELL(abcABC): 1322.94304  1322.94304  1322.94304    90.00000    90.00000    90.00000  Step:        5300  Bead:       0 positions{angstrom}  cell{angstrom}
       E  7.17516e+00  1.54021e+01  1.05231e+01
       E -5.84455e+01  4.70652e+01  2.71823e+00
       E  3.79010e-01  3.04012e+01 -3.45335e+00
3
# CELL(abcABC): 1322.94304  1322.94304  1322.94304    90.00000    90.00000    90.00000  Step:        5400  Bead:       0 positions{angstrom}  cell{angstrom}
       E -2.65243e+00 -3.62475e+00  2.58994e+00
       E -6.50680e+01 -1.04383e+00 -4.44657e+01
       E  2.24917e+01  3.30603e+01 -4.58011e+00
3
# CELL(abcABC): 1322.94304  1322.94304  1322.94304    90.00000    90.00000    90.00000  Step:        5500  Bead:       0 positions{angstrom}  cell{angstrom}
       E  3.42755e+01  1.18225e+01 -1.16357e+01
       E -3.35185e+01  6.28143e+00 -1.55524e+00
       E -3.68826e+01  4.42892e+01  2.14800e+01
3
# CELL(abcABC): 1322.94304  1322.94304  1322.94304    90.00000    90.00000    90.00000  Step:        5600  Bead:       0 positions{angstrom}  cell{angstrom}
       E  3.92117e+01  2.61863e+01 -3.24341e+00
       E -3.69038e+01  3.53607e+01 -8.94550e+00
       E -1.74572e+01  1.99433e+01  1.83070e+01
3
# CELL(abcABC): 1322.94304  1322.94304  1322.94304    90.00000    90.00000    90.00000  Step:        5700  Bead:       0 positions{angstrom}  cell{angstrom}
       E  2.32808e+00  1.67965e+01 -1.88332e+01
       E -1.82910e+01  1.82657e+01 -2.62003e+01
       E -6.17379e+01 -1.52876e+01  2.92668e+01
3
# CELL(abcABC): 1322.94304  1322.94304  1322.94304    90.00000    90.00000    90.00000  Step:        5800  Bead:       0 positions{angstrom}  cell{angstrom}
       E -2.09323e+01  3.69189e+01 -1.53737e+01
       E -3.86894e+01  1.61182e+01  2.37475e+01
       E -2.87601e+01 -3.72571e+01 -3.56843e+00
3
# CELL(abcABC): 1322.94304  1322.94304  1322.94304    90.00000    90.00000    90.00000  Step:        5900  Bead:       0 positions{angstrom}  cell{angstrom}
       E  7.34876e+00  1.72204e+01  5.29971e+00
       E -3.10212e+01  3.68603e+01 -1.73065e+01
       E -3.00612e+01 -4.56848e+01 -4.85389e+00
3
# CELL(abcABC): 1322.94304  1322.94304  1322.94304    90.00000    90.00000    90.00000  Step:        6000  Bead:       0 positions{angstrom}  cell{angstrom}
       E -3.40133e-01 -7.27012e+00 -4.32277e+01
       E -7.46288e+00 -4.52631e+00 -1.99033e+01
       E  1.12622e+01 -5.75403e+01 -1.94365e+01
3
# CELL(abcABC): 1322.94304  1322.94304  1322.94304    90.00000    90.00000    90.00000  Step:        6100  Bead:       0 positions{angstrom}  cell{angstrom}
       E  2.48485e+01 -2.33076e+01 -3.36599e+01
       E  2.79786e+01 -2.63678e+01 -3.90708e+01
       E  1.47108e+01 -3.00069e+01  2.86949e+00
3
# CELL(abcABC): 1322.94304  1322.94304  1322.94304    90.00000    90.00000    90.00000  Step:        6200  Bead:       0 positions{angstrom}  cell{angstrom}
       E  4.92225e+01 -5.56718e+01 -7.82741e+01
       E  6.59164e+01 -2.68235e+01  3.48020e+00
       E  9.86580e+00 -4.02560e+01 -1.33251e+01
3
# CELL(abcABC): 1322.94304  1322.94304  1322.94304    90.00000    90.00000    90.00000  Step:        6300  Bead:       0 positions{angstrom}  cell{angstrom}
       E  3.60179e+01 -7.76658e+01 -1.20378e+02
       E  6.87568e+01 -2.99466e+01 -1.14868e+01
       E  1.55011e+01 -2.72404e+01  2.86571e+01
3
# CELL(abcABC): 1322.94304  1322.94304  1322.94304    90.00000    90.00000    90.00000  Step:        6400  Bead:       0 positions{angstrom}  cell{angstrom}
       E  4.06169e+00 -8.66334e+01 -1.10778e+02
       E  6.54904e+01 -2.67439e+01 -5.47379e+00
       E  2.56528e+00 -1.65152e+01  2.22800e+01
3
# CELL(abcABC): 1322.94304  1322.94304  1322.94304    90.00000    90.00000    90.00000  Step:        6500  Bead:       0 positions{angstrom}  cell{angstrom}
       E  1.12652e+01 -7.77866e+01 -1.18187e+02
       E  2.09330e+01 -1.04786e+01 -5.13200e+01
       E -2.22158e+01 -7.98153e+00 -7.23550e+00
3
# CELL(abcABC): 1322.94304  1322.94304  1322.94304    90.00000    90.00000    90.00000  Step:        6600  Bead:       0 positions{angstrom}  cell{angstrom}
       E  5.23147e+00 -7.19123e+01 -1.23531e+02
       E  4.24965e+00 -2.24646e+01 -2.11367e+01
       E -3.34023e+01 -4.92213e+01  9.91306e+00
3
# CELL(abcABC): 1322.94304  1322.94304  1322.94304    90.00000    90.00000    90.00000  Step:        6700  Bead:       0 positions{angstrom}  cell{angstrom}
       E  1.87291e+01 -8.42521e+01 -1.21998e+02
       E  3.56445e+01 -1.11330e+01 -3.33051e+01
       E -4.07393e+01 -1.78357e+01  4.38637e+01
3
# CELL(abcABC): 1322.94304  1322.94304  1322.94304    90.00000    90.00000    90.00000  Step:        6800  Bead:       0 positions{angstrom}  cell{angstrom}
       E  8.59168e+00 -7.97413e+01 -1.10755e+02
       E  3.00842e+01 -2.23908e+01 -1.49479e+01
       E -4.07243e+00  1.11518e+01  5.11445e+01
3
# CELL(abcABC): 1322.94304  1322.94304  1322.94304    90.00000    90.00000    90.00000  Step:        6900  Bead:       0 positions{angstrom}  cell{angstrom}
       E -1.19145e+01 -8.88007e+01 -6.93657e+01
       E  5.42836e+00 -1.01637e+01  3.10315e+00
       E  2.08571e+01 -2.72109e+01  2.18482e+01
3
# CELL(abcABC): 1322.94304  1322.94304  1322.94304    90.00000    90.00000    90.00000  Step:        7000  Bead:       0 positions{angstrom}  cell{angstrom}
       E  2.03708e+00 -3.77868e+01 -3.20089e+01
       E -8.18452e+00  3.50198e+01 -2.88900e+01
       E  2.24008e+01  2.79767e+01  4.18404e+01
3
# CELL(abcABC): 1322.94304  1322.94304  1322.94304    90.00000    90.00000    90.00000  Step:        7100  Bead:       0 positions{angstrom}  cell{angstrom}
       E -1.17770e+01 -2.40254e+01 -3.87887e+01
       E -1.44293e+01  5.09740e+01  1.14720e+01
       E  2.91517e+01  2.74784e+01  1.51585e+01
3
# CELL(abcABC): 1322.94304  1322.94304  1322.94304    90.00000    90.00000    90.00000  Step:        7200  Bead:       0 positions{angstrom}  cell{angstrom}
       E -1.10812e+01 -1.69348e+01 -6.17571e+01
       E -4.47402e+01  4.29257e+01  3.54427e+01
       E  2.07816e+01  4.73415e+01  1.53094e+01
3
# CELL(abcABC): 1322.94304  1322.94304  1322.94304    90.00000    90.00000    90.00000  Step:        7300  Bead:       0 positions{angstrom}  cell{angstrom}
       E  3.61422e+01 -3.19630e+01 -6.08218e+01
       E -3.93696e+01  3.28191e+01  2.44393e+01
       E  4.94428e+01  2.28810e+01 -1.34106e+01
3
# CELL(abcABC): 1322.94304  1322.94304  1322.94304    90.00000    90.00000    90.00000  Step:        7400  Bead:       0 positions{angstrom}  cell{angstrom}
       E  3.12082e+01  5.59975e+00 -3.02210e+01
       E -9.28015e+00  4.60002e+00  3.79278e+01
       E  3.97194e+01  2.54291e+01 -3.44770e+01
3
# CELL(abcABC): 1322.94304  1322.94304  1322.94304    90.00000    90.00000    90.00000  Step:        7500  Bead:       0 positions{angstrom}  cell{angstrom}
       E -1.28340e+01 -4.08092e+01 -4.06085e+01
       E -4.45444e+01 -1.15301e+00  2.91124e+01
       E  5.48537e+01  5.38923e+01 -4.23453e+01
3
# CELL(abcABC): 1322.94304  1322.94304  1322.94304    90.00000    90.00000    90.00000  Step:        7600  Bead:       0 positions{angstrom}  cell{angstrom}
       E -2.91953e+01 -6.89171e+01 -3.89955e+01
       E -2.32275e+01 -3.07956e+01 -5.61484e+00
       E  5.92042e+01  6.01922e+01 -7.75661e+00
3
# CELL(abcABC): 1322.94304  1322.94304  1322.94304    90.00000    90.00000    90.00000  Step:        7700  Bead:       0 positions{angstrom}  cell{angstrom}
       E -1.15157e+01 -8.56232e+01 -4.73645e+01
       E -5.68029e+00 -6.82559e+01 -7.24647e+00
       E  4.14756e+01  1.12370e+01 -4.57450e+00
3
# CELL(abcABC): 1322.94304  1322.94304  1322.94304    90.00000    90.00000    90.00000  Step:        7800  Bead:       0 positions{angstrom}  cell{angstrom}
       E -3.17221e+00 -5.36401e+01 -4.78735e+01
       E  4.04811e+01 -5.22648e+01 -3.25597e+01
       E  4.80730e+01 -1.84828e+01 -4.95534e+01
3
# CELL(abcABC): 1322.94304  1322.94304  1322.94304    90.00000    90.00000    90.00000  Step:        7900  Bead:       0 positions{angstrom}  cell{angstrom}
       E  9.28364e-01 -3.47482e+00 -2.57946e+01
       E  3.03519e+01 -1.63914e+01 -4.25211e+01
       E  8.95543e+01  6.46953e+00 -4.95560e+01
3
# CELL(abcABC): 1322.94304  1322.94304  1322.94304    90.00000    90.00000    90.00000  Step:        8000  Bead:       0 positions{angstrom}  cell{angstrom}
       E  1.00793e+01  1.85384e+01 -8.05899e+00
       E  2.46960e+00 -2.47245e+01 -5.56336e+01
       E  4.16102e+01 -1.95158e+00 -1.84311e+01
3
# CELL(abcABC): 1322.94304  1322.94304  1322.94304    90.00000    90.00000    90.00000  Step:        8100  Bead:       0 positions{angstrom}  cell{angstrom}
       E  4.91938e+01  5.48360e+01 -1.51805e+01
       E -8.20594e+00 -6.58474e+00 -2.47847e+01
       E -2.80417e+01 -3.29433e+01 -7.84122e+00
3
# CELL(abcABC): 1322.94304  1322.94304  1322.94304    90.00000    90.00000    90.00000  Step:        8200  Bead:       0 positions{angstrom}  cell{angstrom}
       E  3.01333e+01  7.88382e+00 -1.13254e+01
       E -7.01031e+00  2.17253e+01 -2.86644e+01
       E  1.14542e+00 -4.58838e+01  1.79131e+01
3
# CELL(abcABC): 1322.94304  1322.94304  1322.94304    90.00000    90.00000    90.00000  Step:        8300  Bead:       0 positions{angstrom}  cell{angstrom}
       E  3.38453e+01  2.55766e+01 -1.42114e+01
       E  3.97779e+01  5.49218e+00  1.04457e+01
       E  6.93604e-01 -3.50934e+01  2.20400e+01
3
# CELL(abcABC): 1322.94304  1322.94304  1322.94304    90.00000    90.00000    90.00000  Step:        8400  Bead:       0 positions{angstrom}  cell{angstrom}
       E  4.33048e+01 -1.62611e+01 -1.96515e+01
       E  8.16338e+00  1.64276e+01  1.97722e+01
       E  2.86141e+01 -2.96616e+01  4.58103e+01
3
# CELL(abcABC): 1322.94304  1322.94304  1322.94304    90.00000    90.00000    90.00000  Step:        8500  Bead:       0 positions{angstrom}  cell{angstrom}
       E -1.99367e+01 -2.77566e+00 -1.69924e+00
       E  2.53731e+01  2.28861e+01  2.70236e+01
       E  3.62054e+01  8.26719e+00  3.08232e+01
3
# CELL(abcABC): 1322.94304  1322.94304  1322.94304    90.00000    90.00000    90.00000  Step:        8600  Bead:       0 positions{angstrom}  cell{angstrom}
       E -9.20352e-01 -2.07342e+00 -2.36610e+01
       E  3.65838e+01 -4.67207e+00  2.24973e+01
       E  4.89499e+01  2.52595e+01  4.58812e+01
3
# CELL(abcABC): 1322.94304  1322.94304  1322.94304    90.00000    90.00000    90.00000  Step:        8700  Bead:       0 positions{angstrom}  cell{angstrom}
       E -4.63541e+01  2.90595e+01 -3.72670e+01
       E  1.15799e+01 -2.18196e+01 -1.55876e+01
       E  7.50194e+01 -2.64642e+01  1.94461e+01
3
# CELL(abcABC): 1322.94304  1322.94304  1322.94304    90.00000    90.00000    90.00000  Step:        8800  Bead:       0 positions{angstrom}  cell{angstrom}
       E -2.14869e+01  3.22640e+01 -1.95951e+01
       E  1.33268e+01 -3.80544e+01  3.36185e+01
       E  7.10375e+01 -4.72570e+01  4.93434e+01
3
# CELL(abcABC): 1322.94304  1322.94304  1322.94304    90.00000    90.00000    90.00000  Step:        8900  Bead:       0 positions{angstrom}  cell{angstrom}
       E -1.95433e+01  4.65801e+01 -7.09949e+00
       E -1.30934e+01 -3.64206e+01  4.66940e+01
       E  1.27257e+01 -8.07690e+01  6.09739e+01
3
# CELL(abcABC): 1322.94304  1322.94304  1322.94304    90.00000    90.00000    90.00000  Step:        9000  Bead:       0 positions{angstrom}  cell{angstrom}
       E -1.70937e+01  6.93902e+01  2.05427e+01
       E -4.18973e+01 -4.81731e+01  7.46952e+00
       E  2.06566e+01 -7.52047e+01 -1.42613e+00
3
# CELL(abcABC): 1322.94304  1322.94304  1322.94304    90.00000    90.00000    90.00000  Step:        9100  Bead:       0 positions{angstrom}  cell{angstrom}
       E  3.91666e+01  4.14052e+01  3.74392e+01
       E -4.39292e+01  1.27202e+00  1.81840e+01
       E -5.00955e+00 -8.02512e+01 -4.49516e+00
3
# CELL(abcABC): 1322.94304  1322.94304  1322.94304    90.00000    90.00000    90.00000  Step:        9200  Bead:       0 positions{angstrom}  cell{angstrom}
       E  3.02856e+01  2.54467e+01  9.88233e+00
       E -7.55976e-01 -7.92327e+00  6.94864e+01
       E  1.63095e+01 -4.92011e+01 -1.85920e+01
3
# CELL(abcABC): 1322.94304  1322.94304  1322.94304    90.00000    90.00000    90.00000  Step:        9300  Bead:       0 positions{angstrom}  cell{angstrom}
       E  3.86920e+01  6.25482e+01 -6.55999e+01
       E -7.81678e+00 -5.53164e+01  2.64060e+01
       E  6.91975e+01 -5.98367e+00  1.53597e+01
3
# CELL(abcABC): 1322.94304  1322.94304  1322.94304    90.00000    90.00000    90.00000  Step:        9400  Bead:       0 positions{angstrom}  cell{angstrom}
       E  4.02932e+01  3.97732e+01 -4.05530e+01
       E  8.15278e+00 -3.40063e+01  8.46551e+00
       E  1.84172e+01 -2.33907e+00 -2.77645e+00
3
# CELL(abcABC): 1322.94304  1322.94304  1322.94304    90.00000    90.00000    90.00000  Step:        9500  Bead:       0 positions{angstrom}  cell{angstrom}
       E  2.21768e+00  1.33398e+01 -3.83586e+01
       E  3.79357e+01 -2.36736e+01  1.48864e+01
       E  1.33329e+01 -1.17474e+01 -2.89800e+00
3
# CELL(abcABC): 1322.94304  1322.94304  1322.94304    90.00000    90.00000    90.00000  Step:        9600  Bead:       0 positions{angstrom}  cell{angstrom}
       E -1.58893e+01  9.50884e+00 -4.29978e+01
       E  2.33256e+01 -1.98373e+01  1.55302e+01
       E -1.35847e+01 -4.20747e+01 -2.12899e+01
3
# CELL(abcABC): 1322.94304  1322.94304  1322.94304    90.00000    90.00000    90.00000  Step:        9700  Bead:       0 positions{angstrom}  cell{angstrom}
       E -5.07690e+01 -3.98948e+01 -5.12536e+01
       E  6.30929e+01 -6.47085e+01 -1.19722e+01
       E -1.38638e+01 -1.63604e+01 -1.01718e+01
3
# CELL(abcABC): 1322.94304  1322.94304  1322.94304    90.00000    90.00000    90.00000  Step:        9800  Bead:       0 positions{angstrom}  cell{angstrom}
       E -2.80115e+01 -6.87535e+01 -7.24251e+01
       E  6.08270e+01 -8.13069e+01 -2.43856e+01
       E  4.28120e+00 -3.54657e+01  2.79024e+01
3