3
# CELL(abcABC): 1322.94304  1322.94304  1322.94304    90.00000    90.00000    90.00000  Step:           0  Bead:      11 positions{angstrom}  cell{angstrom}
       E  0.00000e+00  0.00000e+00  0.00000e+00
       E  0.00000e+00  0.00000e+00  0.00000e+00
       E  0.00000e+00  0.00000e+00  0.00000e+00
3
# CELL(abcABC): 1322.94304  1322.94304  1322.94304    90.00000    90.00000    90.00000  Step:         100  Bead:      11 positions{angstrom}  cell{angstrom}
       E -9.73709e+00  1.93847e+00 -1.28492e+01
       E  1.40475e+01  1.01352e+01 -2.58796e+01
       E -1.72495e+01 -2.51405e+00 -6.09562e+00
3
# CELL(abcABC): 1322.94304  1322.94304  1322.94304    90.00000    90.00000    90.00000  Step:         200  Bead:      11 positions{angstrom}  cell{angstrom}
       E -1.77668e+01 -3.68301e+01 -9.29454e+00
       E  3.38485e+01 -2.05485e+01 -3.05685e+01
       E -4.07644e+01 -2.24017e+00 -1.46432e+01
3
# CELL(abcABC): 1322.94304  1322.94304  1322.94304    90.00000    90.00000    90.00000  Step:         300  Bead:      11 positions{angstrom}  cell{angstrom}
       E -1.71089e+01  3.35113e+00 -1.71478e+01
       E  2.97006e+01  7.60872e+00 -1.51218e+01
       E -2.76000e+01  1.97372e+01  3.30087e+01
3
# CELL(abcABC): 1322.94304  1322.94304  1322.94304    90.00000    90.00000    90.00000  Step:         400  Bead:      11 positions{angstrom}  cell{angstrom}
       E -7.70986e+00  1.04764e+01 -9.75932e+00
       E  1.44791e+01  4.49161e+01 -1.26735e+01
       E -2.32510e+01  1.20193e+01  1.89832e+01
3
# CELL(abcABC): 1322.94304  1322.94304  1322.94304    90.00000    90.00000    90.00000  Step:         500  Bead:      11 positions{angstrom}  cell{angstrom}
       E -1.27681e+01  2.67874e+01 -9.08432e+00
       E  8.75723e+00  1.89232e+01  1.08067e+01
       E -1.12696e+01  4.10648e+01  2.44675e+01
3
# CELL(abcABC): 1322.94304  1322.94304  1322.94304    90.00000    90.00000    90.00000  Step:         600  Bead:      11 positions{angstrom}  cell{angstrom}
       E -1.33424e+01  2.10252e+01 -3.93952e+01
       E  6.22489e+00 -3.69134e+00  4.41064e+01
       E  1.64665e+01  1.01899e+01  3.16973e+01
3
# CELL(abcABC): 1322.94304  1322.94304  1322.94304    90.00000    90.00000    90.00000  Step:         700  Bead:      11 positions{angstrom}  cell{angstrom}
       E -1.97483e+00  3.28528e+01 -3.82514e+01
       E -6.17958e+00  3.96990e+01  3.77275e+01
       E  1.77325e-01 -2.19284e+00  2.04819e+01
3
# CELL(abcABC): 1322.94304  1322.94304  1322.94304    90.00000    90.00000    90.00000  Step:         800  Bead:      11 positions{angstrom}  cell{angstrom}
       E -3.55013e+01  1.87815e+01 -1.73822e+01
       E  3.88192e+00  3.55130e+01 -2.57358e+00
       E -3.19968e+01  2.52545e+01  5.55179e+01
3
# CELL(abcABC): 1322.94304  1322.94304  1322.94304    90.00000    90.00000    90.00000  Step:         900  Bead:      11 positions{angstrom}  cell{angstrom}
       E  3.33619e+01 -6.59297e+00 -1.97430e+01
       E -2.57533e+00  2.91623e+01 -1.35780e+01
       E -3.89313e+01  9.32298e+00  8.71071e+01
3
# CELL(abcABC): 1322.94304  1322.94304  1322.94304    90.00000    90.00000    90.00000  Step:        1000  Bead:      11 positions{angstrom}  cell{angstrom}
       E  1.20329e+01  1.14086e+01 -3.84824e+01
       E  1.93347e+01 -3.79227e+01 -5.23464e+01
       E -1.04105e+01  1.37791e+01  9.41650e+01
3
# CELL(abcABC): 1322.94304  1322.94304  1322.94304    90.00000    90.00000    90.00000  Step:        1100  Bead:      11 positions{angstrom}  cell{angstrom}
       E  2.69474e+01  4.86950e+00 -7.74126e+01
       E  2.80577e+01 -2.42908e+01 -4.79669e+01
       E -2.47199e+01  1.77689e+01  7.40601e+01
3
# CELL(abcABC): 1322.94304  1322.94304  1322.94304    90.00000    90.00000    90.00000  Step:        1200  Bead:      11 positions{angstrom}  cell{angstrom}
       E  1.29011e+01 -4.96018e+00 -1.00783e+02
       E  3.49697e+01 -3.81487e+01 -5.29623e+01
       E -3.11267e+00  1.97178e+01  3.67868e+01
3
# CELL(abcABC): 1322.94304  1322.94304  1322.94304    90.00000    90.00000    90.00000  Step:        1300  Bead:      11 positions{angstrom}  cell{angstrom}
       E  5.30731e+00  1.76003e+01 -9.64501e+01
       E  1.62393e+01 -2.74769e+01 -6.25710e+01
       E -1.61813e+01  5.22787e+01  4.12130e+01
3
# CELL(abcABC): 1322.94304  1322.94304  1322.94304    90.00000    90.00000    90.00000  Step:        1400  Bead:      11 positions{angstrom}  cell{angstrom}
       E -7.49526e-01  1.26624e+01 -9.75193e+01
       E  1.17551e+01 -3.58350e+01 -6.09908e+01
       E -6.13291e+01  4.19414e+01  1.76846e+01
3
# CELL(abcABC): 1322.94304  1322.94304  1322.94304    90.00000    90.00000    90.00000  Step:        1500  Bead:      11 positions{angstrom}  cell{angstrom}
       E -1.76900e+01  2.97799e+01 -8.98630e+01
       E -1.83922e+01 -1.15194e+01 -2.84772e+01
       E -6.97937e+01  2.31808e+01  3.23952e+01
3
# CELL(abcABC): 1322.94304  1322.94304  1322.94304    90.00000    90.00000    90.00000  Step:        1600  Bead:      11 positions{angstrom}  cell{angstrom}
       E  3.65034e+01  7.27045e+01 -7.39948e+01
       E -1.73358e+01  2.40730e+01  1.09071e+01
       E -3.84441e+01  6.46900e+01  7.00769e+00
3
# CELL(abcABC): 1322.94304  1322.94304  1322.94304    90.00000    90.00000    90.00000  Step:        1700  Bead:      11 positions{angstrom}  cell{angstrom}
       E  4.27289e+01  2.41600e+01 -1.20461e+01
       E  2.78778e+01  5.15273e+01  1.83006e+01
       E -5.04030e+01  4.88704e+01  1.52951e+01
3
# CELL(abcABC): 1322.94304  1322.94304  1322.94304    90.00000    90.00000    90.00000  Step:        1800  Bead:      11 positions{angstrom}  cell{angstrom}
       E  1.98051e+01  3.39058e+01  1.59859e+00
       E -3.40453e+01  5.32026e+01  1.07669e+01
       E -7.53956e+01  7.07662e+01  6.15602e+01
3
# CELL(abcABC): 1322.94304  1322.94304  1322.94304    90.00000    90.00000    90.00000  Step:        1900  Bead:      11 positions{angstrom}  cell{angstrom}
       E -3.61865e+01  7.91408e+00  5.62200e+01
       E -7.02970e+01  3.89094e+01  4.80746e+01
       E -7.73287e+01  6.08751e+01  2.31102e+01
3
# CELL(abcABC): 1322.94304  1322.94304  1322.94304    90.00000    90.00000    90.00000  Step:        2000  Bead:      11 positions{angstrom}  cell{angstrom}
       E -1.88208e+01 -2.60779e+00  4.26957e+01
       E -6.35836e+01  2.76303e+01  2.40479e+01
       E -1.03560e+02  4.69399e+01  4.17830e+00
3
# CELL(abcABC): 1322.94304  1322.94304  1322.94304    90.00000    90.00000    90.00000  Step:        2100  Bead:      11 positions{angstrom}  cell{angstrom}
       E -1.59943e+01 -6.51515e+01  6.02276e+01
       E -2.37177e+01  2.64270e+01 -4.73018e+01
       E -7.29237e+01  6.22491e+01 -3.73375e+00
3
# CELL(abcABC): 1322.94304  1322.94304  1322.94304    90.00000    90.00000    90.00000  Step:        2200  Bead:      11 positions{angstrom}  cell{angstrom}
       E -4.50048e+01 -3.17847e+01  7.05569e+01
       E -6.59439e+00 -5.16383e+00 -5.85725e+01
       E -3.93798e+01  8.23214e+01 -7.21646e+00
3
# CELL(abcABC): 1322.94304  1322.94304  1322.94304    90.00000    90.00000    90.00000  Step:        2300  Bead:      11 positions{angstrom}  cell{angstrom}
       E -2.17920e+01 -9.68305e+01  5.66792e+01
       E -1.82874e+00 -2.54305e+01 -1.47752e+01
       E -4.01430e+01  5.91584e+01  2.82018e+01
3
# CELL(abcABC): 1322.94304  1322.94304  1322.94304    90.00000    90.00000    90.00000  Step:        2400  Bead:      11 positions{angstrom}  cell{angstrom}
       E -1.56674e+01 -6.13076e+01  2.09078e+01
       E  3.63551e+00 -2.55821e+01 -2.47235e+01
       E -2.15135e+01  4.31392e+01  3.61410e+01
3
# CELL(abcABC): 1322.94304  1322.94304  1322.94304    90.00000    90.00000    90.00000  Step:        2500  Bead:      11 positions{angstrom}  cell{angstrom}
       E  4.26457e+00 -5.47177e+01  4.34395e+01
       E -2.09847e+01 -3.11505e+01 -4.84359e+01
       E  5.78263e+00  1.71318e+01  3.30950e+01
3
# CELL(abcABC): 1322.94304  1322.94304  1322.94304    90.00000    90.00000    90.00000  Step:        2600  Bead:      11 positions{angstrom}  cell{angstrom}
       E -9.07116e+00 -1.54558e+01  9.56683e+00
       E -5.92087e+01 -3.57049e+01 -5.78048e+01
       E -1.23434e+01 -1.35870e+01  4.92907e+01
3
# CELL(abcABC): 1322.94304  1322.94304  1322.94304    90.00000    90.00000    90.00000  Step:        2700  Bead:      11 positions{angstrom}  cell{angstrom}
       E -8.54880e+00 -8.79001e+00  4.08596e+01
       E -7.36957e+01 -4.29031e+01 -4.80326e+01
       E -9.97654e+00 -1.09416e+01  3.79166e+01
3
# CELL(abcABC): 1322.94304  1322.94304  1322.94304    90.00000    90.00000    90.00000  Step:        2800  Bead:      11 positions{angstrom}  cell{angstrom}
       E -3.15234e+01 -3.03995e+01  1.97818e+01
       E -7.89464e+01 -8.40248e+01 -5.84888e+00
       E  2.45754e+01  1.86234e+01  5.96920e+01
3
# CELL(abcABC): 1322.94304  1322.94304  1322.94304    90.00000    90.00000    90.00000  Step:        2900  Bead:      11 positions{angstrom}  cell{angstrom}
       E -5.08128e+01 -3.63177e+01  1.03759e+01
       E -4.84768e+01 -5.74100e+01 -2.59683e+00
       E  5.74565e+01  2.84648e+01  2.02438e+01
3
# CELL(abcABC): 1322.94304  1322.94304  1322.94304    90.00000    90.00000    90.00000  Step:        3000  Bead:      11 positions{angstrom}  cell{angstrom}
       E -5.59130e+01 -4.20525e+01  4.80699e+00
       E -4.10957e+01 -8.14873e+01  1.56205e+01
       E  4.83310e+01  5.03638e+01  2.70643e+00
3
# CELL(abcABC): 1322.94304  1322.94304  1322.94304    90.00000    90.00000    90.00000  Step:        3100  Bead:      11 positions{angstrom}  cell{angstrom}
       E -3.27004e+01 -1.69699e+01  3.07823e+01
       E -6.89763e+01 -4.66076e+01  4.53809e+01
       E  2.73914e+01  4.66264e+01  1.90690e+01
3
# CELL(abcABC): 1322.94304  1322.94304  1322.94304    90.00000    90.00000    90.00000  Step:        3200  Bead:      11 positions{angstrom}  cell{angstrom}
       E -3.19344e+01 -3.45092e+01  2.71706e+01
       E -8.44246e+01 -3.43280e+01  7.92534e+01
       E  4.59968e+01  8.42366e+01  3.22890e+01
3
# CELL(abcABC): 1322.94304  1322.94304  1322.94304    90.00000    90.00000    90.00000  Step:        3300  Bead:      11 positions{angstrom}  cell{angstrom}
       E -4.14936e+01 -4.36963e+01  1.43396e+01
       E -9.65591e+01 -5.33600e+01  6.50217e+01
       E  1.88292e+01  6.93431e+01  4.69009e+01
3
# CELL(abcABC): 1322.94304  1322.94304  1322.94304    90.00000    90.00000    90.00000  Step:        3400  Bead:      11 positions{angstrom}  cell{angstrom}
       E -4.61313e+01 -2.15163e+00  2.20789e+01
       E -5.10020e+01 -4.39503e+01  7.83236e+01
       E -1.18719e+00  5.85858e+01  5.86058e+01
3
# CELL(abcABC): 1322.94304  1322.94304  1322.94304    90.00000    90.00000    90.00000  Step:        3500  Bead:      11 positions{angstrom}  cell{angstrom}
       E -5.99794e+01  9.42837e+00  3.65027e+01
       E -1.79666e+01 -6.80869e+00  5.41203e+01
       E  5.34467e+00  6.89250e+01  4.83021e+01
3
# CELL(abcABC): 1322.94304  1322.94304  1322.94304    90.00000    90.00000    90.00000  Step:        3600  Bead:      11 positions{angstrom}  cell{angstrom}
       E -7.31331e+01 -1.03360e+01  1.78614e+01
       E -1.94522e+01 -4.20716e+01 -3.16793e+00
       E -1.17490e+01  7.21342e+01  5.86401e+00
3
# CELL(abcABC): 1322.94304  1322.94304  1322.94304    90.00000    90.00000    90.00000  Step:        3700  Bead:      11 positions{angstrom}  cell{angstrom}
       E -6.49314e+01 -1.80930e+01  1.32413e+01
       E -2.98876e+01 -1.48001e+01  3.68915e+01
       E -1.62179e+01  3.59412e+01 -2.73469e+00
3
# CELL(abcABC): 1322.94304  1322.94304  1322.94304    90.00000    90.00000    90.00000  Step:        3800  Bead:      11 positions{angstrom}  cell{angstrom}
       E -7.87824e+01 -2.28563e+01 -4.75381e+01
       E -2.63651e+01 -2.40360e+01 -1.38957e+01
       E -2.45138e+01  1.86487e+01 -2.15728e+01
3
# CELL(abcABC): 1322.94304  1322.94304  1322.94304    90.00000    90.00000    90.00000  Step:        3900  Bead:      11 positions{angstrom}  cell{angstrom}
       E -9.73272e+01 -1.23811e+01 -1.82860e+01
       E  1.10980e+01 -1.21710e+01 -2.46612e+01
       E -3.51048e+01  3.29532e+01 -3.61883e+01
3
# CELL(abcABC): 1322.94304  1322.94304  1322.94304    90.00000    90.00000    90.00000  Step:        4000  Bead:      11 positions{angstrom}  cell{angstrom}
       E -1.31805e+02  5.11113e+01 -5.88539e+01
       E -4.43065e+01  3.57490e+00 -2.46970e+00
       E -3.37691e+01  2.65847e+01  2.48802e+00
3
# CELL(abcABC): 1322.94304  1322.94304  1322.94304    90.00000    90.00000    90.00000  Step:        4100  Bead:      11 positions{angstrom}  cell{angstrom}
       E -1.06733e+02  3.69839e+01 -4.96873e+01
       E -4.36770e+01  3.83506e+01  4.00804e+01
       E -1.15767e+01  1.96938e+01  5.80750e+01
3
# CELL(abcABC): 1322.94304  1322.94304  1322.94304    90.00000    90.00000    90.00000  Step:        4200  Bead:      11 positions{angstrom}  cell{angstrom}
       E -8.61532e+01  5.25155e+01 -5.94723e+01
       E -3.28719e+01  2.62605e+01  3.79582e+01
       E -5.04176e+00  3.08903e+01  7.53203e+01
3
# CELL(abcABC): 1322.94304  1322.94304  1322.94304    90.00000    90.00000    90.00000  Step:        4300  Bead:      11 positions{angstrom}  cell{angstrom}
       E -6.03260e+01  4.31120e+01 -9.24265e+01
       E -4.65802e+01  3.49161e+01  7.04662e+01
       E -5.17988e+00  2.22906e+01  2.20301e+01
3
# CELL(abcABC): 1322.94304  1322.94304  1322.94304    90.00000    90.00000    90.00000  Step:        4400  Bead:      11 positions{angstrom}  cell{angstrom}
       E -7.56701e+01 -1.16702e+00 -8.12721e+01
       E -5.09453e+01  7.98642e+01  5.11577e+01
       E -5.24259e+01 -1.17823e+01 -1.19372e+00
3
# CELL(abcABC): 1322.94304  1322.94304  1322.94304    90.00000    90.00000    90.00000  Step:        4500  Bead:      11 positions{angstrom}  cell{angstrom}
       E -6.04069e+01  8.46611e+00 -8.96497e+01
       E -5.36532e+01  7.41941e+01  1.04987e+01
       E -1.23201e+01 -2.58131e+01  3.55763e+01
3
# CELL(abcABC): 1322.94304  1322.94304  1322.94304    90.00000    90.00000    90.00000  Step:        4600  Bead:      11 positions{angstrom}  cell{angstrom}
       E  1.02989e+01  5.35595e+00 -6.86166e+01
       E -7.19570e+01  2.94714e+01 -1.31545e+01
       E  3.54343e+01 -4.13525e+01  4.83601e+01
3
# CELL(abcABC): 1322.94304  1322.94304  1322.94304    90.00000    90.00000    90.00000  Step:        4700  Bead:      11 positions{angstrom}  cell{angstrom}
       E  1.70543e+01  3.05280e+01 -5.42008e+01
       E -5.92503e+01  4.84436e+01 -3.07590e+01
       E  6.58981e+01 -9.60070e+00  1.14386e+00
3
# CELL(abcABC): 1322.94304  1322.94304  1322.94304    90.00000    90.00000    90.00000  Step:        4800  Bead:      11 positions{angstrom}  cell{angstrom}
       E  1.49166e+01  6.46591e+01 -2.28898e+01
       E -6.82876e+01  4.66935e+01 -3.04128e+01
       E  5.35095e+01  2.01042e+01 -1.54541e+01
3
# CELL(abcABC): 1322.94304  1322.94304  1322.94304    90.00000    90.00000    90.00000  Step:        4900  Bead:      11 positions{angstrom}  cell{angstrom}
       E  1.21078e+01  2.48695e+01 -5.87307e+00
       E -3.81174e+01 -1.67616e+01 -2.23525e+01
       E  2.55606e+01  3.46004e+00 -2.48178e+01
3
# CELL(abcABC): 1322.94304  1322.94304  1322.94304    90.00000    90.00000    90.00000  Step:        5000  Bead:      11 positions{angstrom}  cell{angstrom}
       E  4.78327e-01 -2.56160e+00 -9.20728e+00
       E -4.30996e+01 -3.03223e+00 -2.76048e+01
       E -2.28723e+00 -2.11476e+01 -3.27850e+01
3
# CELL(abcABC): 1322.94304  1322.94304  1322.94304    90.00000    90.00000    90.00000  Step:        5100  Bead:      11 positions{angstrom}  cell{angstrom}
       E  1.35728e+01 -1.60534e+00  3.54275e+01
       E -2.61149e+01 -1.65386e+01 -8.20451e+00
       E -5.41162e+00 -1.65293e+01  1.27523e+00
3
# CELL(abcABC): 1322.94304  1322.94304  1322.94304    90.00000    90.00000    90.00000  Step:        5200  Bead:      11 positions{angstrom}  cell{angstrom}
       E  2.06018e+01  2.75399e+01  4.20360e+01
       E -3.93004e+01  1.23278e+01 -1.20165e+01
       E  1.47746e+01 -1.29977e+01  5.10996e+00
3
# CELL(abcABC): 1322.94304  1322.94304  1322.94304    90.00000    90.00000    90.00000  Step:        5300  Bead:      11 positions{angstrom}  cell{angstrom}
       E  8.19347e+00  5.27578e+01  4.06459e+01
       E -2.06706e+01  9.57841e+00 -2.45084e+01
       E  1.02936e+01  4.01083e+01  2.71555e+01
3
# CELL(abcABC): 1322.94304  1322.94304  1322.94304    90.00000    90.00000    90.00000  Step:        5400  Bead:      11 positions{angstrom}  cell{angstrom}
       E  1.06310e+01  2.48578e+01  4.46744e+01
       E -1.17318e+01  1.72783e+01 -4.24408e+01
       E  1.83483e+00  2.97201e+01  4.99835e+01
3
# CELL(abcABC): 1322.94304  1322.94304  1322.94304    90.00000    90.00000    90.00000  Step:        5500  Bead:      11 positions{angstrom}  cell{angstrom}
       E -1.15001e+01  2.10603e+01  4.49752e+01
       E -2.89442e+01  4.01239e+00 -3.10547e+01
       E -2.22483e+01 -5.49840e+00  3.79732e+01
3
# CELL(abcABC): 1322.94304  1322.94304  1322.94304    90.00000    90.00000    90.00000  Step:        5600  Bead:      11 positions{angstrom}  cell{angstrom}
       E -1.71696e+01  4.41952e+00  2.35218e+01
       E -6.14558e+01  5.01122e+00 -4.04471e+01
       E -5.04381e+01  1.54125e+00  2.36280e+01
3
# CELL(abcABC): 1322.94304  1322.94304  1322.94304    90.00000    90.00000    90.00000  Step:        5700  Bead:      11 positions{angstrom}  cell{angstrom}
       E  1.40155e+01  1.49645e+01 -6.51846e+00
       E -3.14831e+01  3.23346e+01  2.25887e+00
       E -2.34432e+01  5.66599e+00  2.78101e+01
3
# CELL(abcABC): 1322.94304  1322.94304  1322.94304    90.00000    90.00000    90.00000  Step:        5800  Bead:      11 positions{angstrom}  cell{angstrom}
       E  2.48756e+01  1.08460e+01 -1.17020e+01
       E -4.65389e+01  4.05663e+01 -1.94904e+01
       E -1.55392e+01  2.02728e+01  3.40794e+00
3
# CELL(abcABC): 1322.94304  1322.94304  1322.94304    90.00000    90.00000    90.00000  Step:        5900  Bead:      11 positions{angstrom}  cell{angstrom}
       E  3.29504e+01 -1.68445e+01 -7.26728e+00
       E -3.41135e+01  3.71445e+00 -3.96000e+01
       E  3.00125e+00 -4.04350e-01  3.07974e+01
3
# CELL(abcABC): 1322.94304  1322.94304  1322.94304    90.00000    90.00000    90.00000  Step:        6000  Bead:      11 positions{angstrom}  cell{angstrom}
       E  2.64079e+01  8.17095e-01 -2.40589e+01
       E -1.70606e+01 -1.27730e-01 -5.00241e+00
       E -7.06742e+00 -3.27870e+00  2.06104e+01
3
# CELL(abcABC): 1322.94304  1322.94304  1322.94304    90.00000    90.00000    90.00000  Step:        6100  Bead:      11 positions{angstrom}  cell{angstrom}
       E  1.60934e+01 -3.96080e+01 -6.37094e+01
       E  1.39058e+01 -1.09191e+01  3.22765e+01
       E -3.35956e+01 -1.40214e+01  4.25766e+00
3
# CELL(abcABC): 1322.94304  1322.94304  1322.94304    90.00000    90.00000    90.00000  Step:        6200  Bead:      11 positions{angstrom}  cell{angstrom}
       E  1.46465e+01 -1.12983e+01 -9.39745e+01
       E  8.39151e+01  3.90120e+01  2.09210e+00
       E  1.97964e+01  8.80188e+00 -1.27010e+00
3
# CELL(abcABC): 1322.94304  1322.94304  1322.94304    90.00000    90.00000    90.00000  Step:        6300  Bead:      11 positions{angstrom}  cell{angstrom}
       E  2.77631e+01 -3.84659e+01 -9.50005e+01
       E  9.86256e+01 -1.32288e+01 -4.70421e+01
       E  2.72336e+01 -1.25692e+01 -1.67730e+01
3
# CELL(abcABC): 1322.94304  1322.94304  1322.94304    90.00000    90.00000    90.00000  Step:        6400  Bead:      11 positions{angstrom}  cell{angstrom}
       E  4.74443e+01 -6.92501e+01 -8.51965e+01
       E  1.08160e+02 -4.82009e+00 -2.91753e+01
       E -1.23050e+01 -1.66496e+01  1.37972e+01
3
# CELL(abcABC): 1322.94304  1322.94304  1322.94304    90.00000    90.00000    90.00000  Step:        6500  Bead:      11 positions{angstrom}  cell{angstrom}
       E  3.64255e+00 -9.31922e+01 -1.34838e+02
       E  3.10093e+01 -2.92699e+01 -1.67696e+01
       E -5.68091e+00 -3.97498e+01  3.16821e+01
3
# CELL(abcABC): 1322.94304  1322.94304  1322.94304    90.00000    90.00000    90.00000  Step:        6600  Bead:      11 positions{angstrom}  cell{angstrom}
       E -2.40712e+01 -7.38359e+01 -1.08722e+02
       E  3.99145e+01 -2.83735e+01  1.85701e+01
       E  1.09868e+01 -2.32715e+01  2.85253e+01
3
# CELL(abcABC): 1322.94304  1322.94304  1322.94304    90.00000    90.00000    90.00000  Step:        6700  Bead:      11 positions{angstrom}  cell{angstrom}
       E -4.00483e+00 -7.19567e+01 -9.30829e+01
       E  2.71639e+01 -3.52126e+01  9.87957e+00
       E -1.15027e+01 -4.13712e+00  5.33696e+00
3
# CELL(abcABC): 1322.94304  1322.94304  1322.94304    90.00000    90.00000    90.00000  Step:        6800  Bead:      11 positions{angstrom}  cell{angstrom}
       E  8.09546e-01 -5.22990e+01 -4.55945e+01
       E  7.08789e+01 -1.16578e+01  1.33681e+01
       E  3.20717e+00  4.12491e+01 -1.14234e+01
3
# CELL(abcABC): 1322.94304  1322.94304  1322.94304    90.00000    90.00000    90.00000  Step:        6900  Bead:      11 positions{angstrom}  cell{angstrom}
       E  5.61210e+00 -4.62316e+01 -5.40124e+01
       E  1.82748e+01 -1.61895e+01 -2.05687e+01
       E  2.07959e+00  2.76939e+01  2.75242e-01
3
# CELL(abcABC): 1322.94304  1322.94304  1322.94304    90.00000    90.00000    90.00000  Step:        7000  Bead:      11 positions{angstrom}  cell{angstrom}
       E -1.80720e+01 -6.23212e+01 -4.74242e+01
       E  1.97604e+00  5.03967e+00  2.58216e+01
       E  1.43982e+01  2.85360e+01  3.59280e+01
3
# CELL(abcABC): 1322.94304  1322.94304  1322.94304    90.00000    90.00000    90.00000  Step:        7100  Bead:      11 positions{angstrom}  cell{angstrom}
       E  9.08750e+00 -3.67599e+01 -2.62213e+01
       E -1.77095e+01 -1.15532e+01  4.28835e+01
       E  2.17831e+01  5.07061e+01  4.43352e+01
3
# CELL(abcABC): 1322.94304  1322.94304  1322.94304    90.00000    90.00000    90.00000  Step:        7200  Bead:      11 positions{angstrom}  cell{angstrom}
       E  4.35304e+01 -3.44922e+01 -6.83208e+00
       E -5.18607e+01 -8.12857e+00  2.44467e+01
       E  5.10439e+01  3.37598e+01  1.01241e+01
3
# CELL(abcABC): 1322.94304  1322.94304  1322.94304    90.00000    90.00000    90.00000  Step:        7300  Bead:      11 positions{angstrom}  cell{angstrom}
       E  8.13584e+00 -3.76615e+01 -3.68199e+01
       E -1.87929e+01  6.21569e+01  4.40025e+01
       E  7.42433e+01  1.83546e+01 -3.00383e+01
3
# CELL(abcABC): 1322.94304  1322.94304  1322.94304    90.00000    90.00000    90.00000  Step:        7400  Bead:      11 positions{angstrom}  cell{angstrom}
       E -1.89689e+00 -3.66349e+01 -4.18481e+01
       E -1.97359e+01  4.36798e+01  1.98016e+01
       E  4.99520e+01  5.82390e+01 -1.91056e+01
3
# CELL(abcABC): 1322.94304  1322.94304  1322.94304    90.00000    90.00000    90.00000  Step:        7500  Bead:      11 positions{angstrom}  cell{angstrom}
       E -1.41924e+01 -7.55721e+01 -4.90549e+01
       E -2.06227e+01 -4.82360e+00  1.50061e+01
       E  5.81873e+01  3.35033e+01 -1.61930e+01
3
# CELL(abcABC): 1322.94304  1322.94304  1322.94304    90.00000    90.00000    90.00000  Step:        7600  Bead:      11 positions{angstrom}  cell{angstrom}
       E  7.74599e+00 -8.25879e+01 -3.24093e+01
       E -1.81632e+00 -5.16570e+01 -2.74288e+01
       E  4.63335e+01  3.76219e+01  1.13367e+01
3
# CELL(abcABC): 1322.94304  1322.94304  1322.94304    90.00000    90.00000    90.00000  Step:        7700  Bead:      11 positions{angstrom}  cell{angstrom}
       E  9.91132e+00 -5.44958e+01 -1.59650e+01
       E -6.86755e+00 -5.37472e+01 -4.85347e+01
       E  1.91139e+01  4.76718e+01 -2.87446e+01
3
# CELL(abcABC): 1322.94304  1322.94304  1322.94304    90.00000    90.00000    90.00000  Step:        7800  Bead:      11 positions{angstrom}  cell{angstrom}
       E  2.40835e+01 -4.31052e+01 -2.42645e+01
       E -2.81238e+01 -7.12031e+01 -5.15289e+01
       E  5.41478e+01  1.52001e+01 -6.20692e+01
3
# CELL(abcABC): 1322.94304  1322.94304  1322.94304    90.00000    90.00000    90.00000  Step:        7900  Bead:      11 positions{angstrom}  cell{angstrom}
       E  5.94948e+00 -2.01691e+01 -3.90539e+01
       E  1.11869e+01 -2.82131e+01 -3.73374e+01
       E  1.07713e+01  3.96458e+01 -5.74022e+01
3
# CELL(abcABC): 1322.94304  1322.94304  1322.94304    90.00000    90.00000    90.00000  Step:        8000  Bead:      11 positions{angstrom}  cell{angstrom}
       E  3.07854e+00 -8.67117e+00 -3.11112e+01
       E -8.01848e-01 -1.31146e+01 -1.35116e+01
       E  1.30124e+01  4.40712e+01 -4.04082e+01
3
# CELL(abcABC): 1322.94304  1322.94304  1322.94304    90.00000    90.00000    90.00000  Step:        8100  Bead:      11 positions{angstrom}  cell{angstrom}
       E  3.47418e+01 -2.77145e+00 -5.08005e+01
       E  2.61194e-01  5.65695e+00 -1.33413e+00
       E  2.21480e+01  1.57584e+01 -1.65192e+01
3
# CELL(abcABC): 1322.94304  1322.94304  1322.94304    90.00000    90.00000    90.00000  Step:        8200  Bead:      11 positions{angstrom}  cell{angstrom}
       E  3.43713e+01  5.53806e+01 -4.70630e+01
       E -4.30116e+01  9.86875e-01  3.05919e-01
       E  1.42906e+01 -2.19360e+01  1.58190e+01
3
# CELL(abcABC): 1322.94304  1322.94304  1322.94304    90.00000    90.00000    90.00000  Step:        8300  Bead:      11 positions{angstrom}  cell{angstrom}
       E  3.66246e+01  2.19046e+01 -4.02449e+01
       E -1.94676e+01  3.77520e+01  2.32240e+01
       E  3.85983e+01 -5.07858e+01  3.19850e+01
3
# CELL(abcABC): 1322.94304  1322.94304  1322.94304    90.00000    90.00000    90.00000  Step:        8400  Bead:      11 positions{angstrom}  cell{angstrom}
       E  1.89915e+01  7.36547e+00 -2.46277e+01
       E  1.60551e+01  4.91325e+01  5.99175e+00
       E  3.68989e+01 -4.28740e+01  4.90875e+01
3
# CELL(abcABC): 1322.94304  1322.94304  1322.94304    90.00000    90.00000    90.00000  Step:        8500  Bead:      11 positions{angstrom}  cell{angstrom}
       E -3.43436e+01 -1.63589e+01 -3.26588e+00
       E  3.12303e+01  2.69640e+01 -2.84599e+00
       E  2.33972e+01 -1.88622e+01  2.28138e+01
3
# CELL(abcABC): 1322.94304  1322.94304  1322.94304    90.00000    90.00000    90.00000  Step:        8600  Bead:      11 positions{angstrom}  cell{angstrom}
       E -5.89998e+01  1.98524e+00 -1.28405e+00
       E  5.83842e+00  3.16399e+01 -6.86762e+01
       E  1.79975e+01 -1.61566e+01  3.92086e+01
3
# CELL(abcABC): 1322.94304  1322.94304  1322.94304    90.00000    90.00000    90.00000  Step:        8700  Bead:      11 positions{angstrom}  cell{angstrom}
       E -3.04562e+01  2.45010e+01 -6.05477e+00
       E -2.11789e+01  3.25082e+01 -3.36996e+01
       E  2.70776e+00 -2.61846e+01  3.29195e+01
3
# CELL(abcABC): 1322.94304  1322.94304  1322.94304    90.00000    90.00000    90.00000  Step:        8800  Bead:      11 positions{angstrom}  cell{angstrom}
       E -1.67926e+01  3.49297e+01  2.07394e+01
       E  2.48581e+00 -4.99103e-01  4.02929e+00
       E  3.78161e+01 -6.83572e+01  5.64809e+01
3
# CELL(abcABC): 1322.94304  1322.94304  1322.94304    90.00000    90.00000    90.00000  Step:        8900  Bead:      11 positions{angstrom}  cell{angstrom}
       E -2.07140e+01 -1.58335e+01  2.56553e+01
       E -3.67510e+00 -3.00496e+01  2.86731e+01
       E  3.53150e+00 -4.98395e+01  5.10588e+01
3
# CELL(abcABC): 1322.94304  1322.94304  1322.94304    90.00000    90.00000    90.00000  Step:        9000  Bead:      11 positions{angstrom}  cell{angstrom}
       E -1.92033e+01  1.60494e+01  2.21953e+01
       E -1.99945e+01 -4.27210e+00  5.19705e+01
       E  4.06349e+01 -3.65102e+01  4.52718e+00
3
# CELL(abcABC): 1322.94304  1322.94304  1322.94304    90.00000    90.00000    90.00000  Step:        9100  Bead:      11 positions{angstrom}  cell{angstrom}
       E  1.46443e+01  3.02798e+01 -1.50117e+01
       E -3.56681e+01  9.46197e+00  6.49859e+01
       E  2.92669e+01 -9.24825e+00  3.46208e+01
3
# CELL(abcABC): 1322.94304  1322.94304  1322.94304    90.00000    90.00000    90.00000  Step:        9200  Bead:      11 positions{angstrom}  cell{angstrom}
       E  8.48192e+00  3.30418e+01  1.21835e+01
       E -2.39087e+01  3.72909e+00  4.50229e+01
       E  1.39073e+01 -7.22856e+01  2.28919e+01
3
# CELL(abcABC): 1322.94304  1322.94304  1322.94304    90.00000    90.00000    90.00000  Step:        9300  Bead:      11 positions{angstrom}  cell{angstrom}
       E -1.40491e+00  4.25582e+01 -1.85309e+01
       E -3.16329e+00 -4.41520e+00  1.60763e+01
       E  2.29023e+01 -4.67211e+01  1.87407e+01
3
# CELL(abcABC): 1322.94304  1322.94304  1322.94304    90.00000    90.00000    90.00000  Step:        9400  Bead:      11 positions{angstrom}  cell{angstrom}
       E  2.65273e+01  8.23506e+01 -6.05839e+01
       E -2.58474e+01 -4.26293e+01  2.86397e+01
       E  7.57799e+01 -5.62181e+01  4.43439e+00
3
# CELL(abcABC): 1322.94304  1322.94304  1322.94304    90.00000    90.00000    90.00000  Step:        9500  Bead:      11 positions{angstrom}  cell{angstrom}
       E  1.43346e+01  6.78629e+01 -3.88827e+01
       E -2.60628e+00 -5.15100e+01  5.87154e+01
       E  2.46290e+01 -4.52469e+01  9.52267e+00
3
# CELL(abcABC): 1322.94304  1322.94304  1322.94304    90.00000    90.00000    90.00000  Step:        9600  Bead:      11 positions{angstrom}  cell{angstrom}
       E  5.18700e+00  6.01444e+01 -2.18495e+01
       E  4.45707e+01 -6.04402e+01  2.33653e+01
       E  2.59739e+01 -2.68783e+01 -2.40811e+00
3
# CELL(abcABC): 1322.94304  1322.94304  1322.94304    90.00000    90.00000    90.00000  Step:        9700  Bead:      11 positions{angstrom}  cell{angstrom}
       E -7.59298e+00 -1.12068e+01 -4.59910e+01
       E  8.35223e+01 -5.67735e+01  2.29227e+01
       E  3.19689e+01 -1.72081e+01 -2.96590e+00
3
# CELL(abcABC): 1322.94304  1322.94304  1322.94304    90.00000    90.00000    90.00000  Step:        9800  Bead:      11 positions{angstrom}  cell{angstrom}
       E -4.21245e+00 -5.88112e+01 -6.69668e+01
       E  4.58505e+01 -9.41808e+01 -5.31797e+00
       E  1.01100e+01 -8.90741e+00  4.67826e+00
3