#Bead    Energy (eV)
0     0.6099210092696513
1     0.610741713035443
2     0.6123523748909003
3     0.6146913057137728
4     0.6176672377502191
5     0.621161728917309
6     0.6250328962889775
7     0.6291207211507764
8     0.6332540175212494
9     0.6372589134930255
10     0.6409683936042959
11     0.644232148949085
12     0.646925753683277
13     0.6489581052836233
14     0.6502761800708324
15     0.6508664693426228
16     0.6507529247169644
17     0.6499917581690849
18     0.6486638970645039
19     0.6468661869513134
20     0.6447025097727208
21     0.6422758462772986
22     0.6396820144882197
23     0.6370054458819037
24     0.6343170043435388
25     0.6316735751858372
26     0.6291189858253755
27     0.6266857662799623
28     0.6243972949680577
29     0.6222699686883546
30     0.620315151913436
31     0.6185407728629884
32     0.6169525252329137
33     0.6155546978932211
34     0.6143506921946013
35     0.6133433009330337
36     0.6125348225231907
37     0.6119270751773409
38     0.6115213622074771
39     0.6113184273659641
