#Bead    Energy (eV)
0     0.5909982142085378
1     0.5925910331643004
2     0.5957046990979962
3     0.6001953011005673
4     0.6058481117904385
5     0.6123816875415978
6     0.6194571976133758
7     0.6266948831038716
8     0.6336983288832485
9     0.6400852269757981
10     0.6455209648265184
11     0.6497494889145289
12     0.652615374887737
13     0.654072419476995
14     0.6541771221357328
15     0.6530691048964126
16     0.6509434517034007
17     0.6480211305289736
18     0.6445229237394466
19     0.6406502888860596
20     0.6365741829855213
21     0.6324310111134716
22     0.6283238425574202
23     0.6243267857567748
24     0.6204907102375278
25     0.616849032444617
26     0.6134228118704057
27     0.6102248222815966
28     0.6072625640006185
29     0.6045403663685563
30     0.6020607708842641
31     0.5998253824287865
32     0.5978353560002516
33     0.5960916480206255
34     0.5945951248351969
35     0.5933465913121445
36     0.5923467796893013
37     0.5915963227206626
38     0.591095724463297
39     0.5908453354838131
