3
# CELL(abcABC): 1322.94304  1322.94304  1322.94304    90.00000    90.00000    90.00000  Step:           0  Bead:       7 positions{angstrom}  cell{angstrom}
       E  0.00000e+00  0.00000e+00  0.00000e+00
       E  0.00000e+00  0.00000e+00  0.00000e+00
       E  0.00000e+00  0.00000e+00  0.00000e+00
3
# CELL(abcABC): 1322.94304  1322.94304  1322.94304    90.00000    90.00000    90.00000  Step:         100  Bead:       7 positions{angstrom}  cell{angstrom}
       E -2.09996e+01 -9.48739e+00 -6.39588e+00
       E -7.80905e+00  4.23443e+00 -1.01132e+01
       E -2.87942e+01 -2.59521e+00 -1.20378e+01
3
# CELL(abcABC): 1322.94304  1322.94304  1322.94304    90.00000    90.00000    90.00000  Step:         200  Bead:       7 positions{angstrom}  cell{angstrom}
       E -1.01751e+01 -2.47914e+01 -5.27328e+01
       E  1.81910e+01  2.27484e+01 -5.36924e+01
       E -4.73536e+01  1.75585e+00 -4.03146e+00
3
# CELL(abcABC): 1322.94304  1322.94304  1322.94304    90.00000    90.00000    90.00000  Step:         300  Bead:       7 positions{angstrom}  cell{angstrom}
       E -1.59215e+01 -3.10924e+01 -3.90042e+01
       E -1.10056e+00  9.68720e+00 -3.91050e+01
       E -2.24200e+01  1.41962e+01  2.52250e+01
3
# CELL(abcABC): 1322.94304  1322.94304  1322.94304    90.00000    90.00000    90.00000  Step:         400  Bead:       7 positions{angstrom}  cell{angstrom}
       E -5.23035e+00  2.89516e+01 -2.22296e+00
       E  4.00097e+00  8.57417e+00 -1.72321e+01
       E  3.17804e+00  3.80041e+01  3.57863e+01
3
# CELL(abcABC): 1322.94304  1322.94304  1322.94304    90.00000    90.00000    90.00000  Step:         500  Bead:       7 positions{angstrom}  cell{angstrom}
       E -2.02706e+01  1.17547e+01 -2.78594e+01
       E  6.36567e+00 -1.61172e+01  1.54962e+01
       E -1.56259e+01  2.13763e+01  2.16847e+01
3
# CELL(abcABC): 1322.94304  1322.94304  1322.94304    90.00000    90.00000    90.00000  Step:         600  Bead:       7 positions{angstrom}  cell{angstrom}
       E -4.14395e+01  2.85642e+01 -4.14462e+01
       E -1.90432e+01 -1.46663e+01  4.14369e+01
       E  3.50488e+00 -7.26310e+00  1.11146e+01
3
# CELL(abcABC): 1322.94304  1322.94304  1322.94304    90.00000    90.00000    90.00000  Step:         700  Bead:       7 positions{angstrom}  cell{angstrom}
       E  1.09119e+01  2.28564e+01 -5.47593e+01
       E -1.91502e+01  2.77330e+01  3.56632e+01
       E  1.13031e+01 -1.07194e+01  2.75841e+01
3
# CELL(abcABC): 1322.94304  1322.94304  1322.94304    90.00000    90.00000    90.00000  Step:         800  Bead:       7 positions{angstrom}  cell{angstrom}
       E -4.69047e+01  2.55068e+01 -3.59936e+01
       E  2.19914e+01  6.00961e+01  4.71749e+00
       E -6.12819e+01  3.01185e+01  6.94581e+01
3
# CELL(abcABC): 1322.94304  1322.94304  1322.94304    90.00000    90.00000    90.00000  Step:         900  Bead:       7 positions{angstrom}  cell{angstrom}
       E  5.24651e+00 -2.45671e+01 -6.34406e+00
       E  4.64383e+00  9.46682e-02 -1.30830e+01
       E -4.72189e+01  2.51614e+01  7.07221e+01
3
# CELL(abcABC): 1322.94304  1322.94304  1322.94304    90.00000    90.00000    90.00000  Step:        1000  Bead:       7 positions{angstrom}  cell{angstrom}
       E  9.89012e+00  2.82325e+01 -1.98959e+01
       E  1.55353e+01 -3.55851e+00 -4.22329e+01
       E -3.51063e+01 -1.20568e+01  6.93909e+01
3
# CELL(abcABC): 1322.94304  1322.94304  1322.94304    90.00000    90.00000    90.00000  Step:        1100  Bead:       7 positions{angstrom}  cell{angstrom}
       E  1.96170e+01  2.55256e+01 -5.75473e+01
       E  6.15250e+01 -2.09623e+01 -7.22400e+01
       E -3.71851e+01 -4.72375e-01  4.37401e+01
3
# CELL(abcABC): 1322.94304  1322.94304  1322.94304    90.00000    90.00000    90.00000  Step:        1200  Bead:       7 positions{angstrom}  cell{angstrom}
       E  1.76358e+01  2.00284e+01 -6.65037e+01
       E  1.73881e+01 -1.22697e+01 -8.60548e+01
       E -5.38727e+01  9.97817e+00  3.78899e+01
3
# CELL(abcABC): 1322.94304  1322.94304  1322.94304    90.00000    90.00000    90.00000  Step:        1300  Bead:       7 positions{angstrom}  cell{angstrom}
       E -7.32786e+00  1.03025e+01 -7.02977e+01
       E  2.17492e+00 -5.31035e+01 -5.56139e+01
       E -2.47212e+01  3.60992e+01  2.74118e+01
3
# CELL(abcABC): 1322.94304  1322.94304  1322.94304    90.00000    90.00000    90.00000  Step:        1400  Bead:       7 positions{angstrom}  cell{angstrom}
       E -4.67332e+01  1.03372e+01 -6.75296e+01
       E  8.72344e-01 -4.20062e+01 -3.71521e+01
       E -5.24044e+01  4.00813e+01  2.16001e+01
3
# CELL(abcABC): 1322.94304  1322.94304  1322.94304    90.00000    90.00000    90.00000  Step:        1500  Bead:       7 positions{angstrom}  cell{angstrom}
       E -4.01945e+01  2.87410e+01 -6.50055e+01
       E -6.75968e+00 -2.37039e+01 -2.44439e+01
       E -4.92416e+01  4.19099e+01  2.50472e+01
3
# CELL(abcABC): 1322.94304  1322.94304  1322.94304    90.00000    90.00000    90.00000  Step:        1600  Bead:       7 positions{angstrom}  cell{angstrom}
       E -1.99987e+01  5.05093e+01 -3.45756e+01
       E -1.76100e+01 -8.60641e+00 -2.63738e+01
       E -4.01936e+01  6.24053e+01  7.55025e+00
3
# CELL(abcABC): 1322.94304  1322.94304  1322.94304    90.00000    90.00000    90.00000  Step:        1700  Bead:       7 positions{angstrom}  cell{angstrom}
       E  3.13059e+00  2.20860e+01 -8.49512e-02
       E -4.06417e+00  1.65585e+01  7.01530e+00
       E -1.33111e+01  7.85229e+01  1.70598e+01
3
# CELL(abcABC): 1322.94304  1322.94304  1322.94304    90.00000    90.00000    90.00000  Step:        1800  Bead:       7 positions{angstrom}  cell{angstrom}
       E -1.63278e+01  1.53442e+01 -1.38554e+00
       E -7.99970e-01  4.86527e+01  6.80176e-01
       E -4.15338e+01  7.20325e+01  8.42862e+01
3
# CELL(abcABC): 1322.94304  1322.94304  1322.94304    90.00000    90.00000    90.00000  Step:        1900  Bead:       7 positions{angstrom}  cell{angstrom}
       E -1.78006e+01  1.97265e+01  1.78039e+01
       E -9.20751e+01  2.44914e+01  2.68137e+01
       E -7.13046e+01  5.79636e+01  4.85717e+01
3
# CELL(abcABC): 1322.94304  1322.94304  1322.94304    90.00000    90.00000    90.00000  Step:        2000  Bead:       7 positions{angstrom}  cell{angstrom}
       E  6.22267e+00  5.67940e+00  4.70633e+01
       E -6.90224e+01  2.44634e+01  4.24651e+01
       E -7.56197e+01  3.62782e+01  1.74657e+01
3
# CELL(abcABC): 1322.94304  1322.94304  1322.94304    90.00000    90.00000    90.00000  Step:        2100  Bead:       7 positions{angstrom}  cell{angstrom}
       E -1.73409e+01  1.73612e+00  3.60572e+01
       E -4.05139e+01  3.39937e+01  1.60796e+01
       E -6.01130e+01  1.46988e+01  2.22691e+01
3
# CELL(abcABC): 1322.94304  1322.94304  1322.94304    90.00000    90.00000    90.00000  Step:        2200  Bead:       7 positions{angstrom}  cell{angstrom}
       E -3.04078e+01 -6.69383e+00  3.08456e+01
       E -2.40747e+01 -3.20847e+01 -2.90845e+01
       E -2.85346e+01  3.46027e+01  3.39602e+01
3
# CELL(abcABC): 1322.94304  1322.94304  1322.94304    90.00000    90.00000    90.00000  Step:        2300  Bead:       7 positions{angstrom}  cell{angstrom}
       E -2.70860e+01 -3.42246e+01  5.81952e+01
       E -3.04885e+01 -2.56199e+01 -2.32408e+01
       E -1.31178e+01  3.36016e+01  3.24990e+01
3
# CELL(abcABC): 1322.94304  1322.94304  1322.94304    90.00000    90.00000    90.00000  Step:        2400  Bead:       7 positions{angstrom}  cell{angstrom}
       E -2.26147e+01 -1.78917e+01  2.79160e+01
       E  1.63906e+00 -3.41668e+01 -1.39701e+01
       E -2.40411e+01  1.70639e+01  4.12454e+01
3
# CELL(abcABC): 1322.94304  1322.94304  1322.94304    90.00000    90.00000    90.00000  Step:        2500  Bead:       7 positions{angstrom}  cell{angstrom}
       E -9.03949e+00 -6.66324e+00  5.54759e+01
       E -2.42965e+01 -3.17493e+01 -5.29223e+01
       E -1.07634e+01 -9.11966e-01  6.25292e+01
3
# CELL(abcABC): 1322.94304  1322.94304  1322.94304    90.00000    90.00000    90.00000  Step:        2600  Bead:       7 positions{angstrom}  cell{angstrom}
       E  1.45179e+01 -4.76133e+01  7.49799e+01
       E -5.91475e+01 -4.00573e+01 -7.23031e+01
       E -2.20673e+01 -3.09761e+01  5.89371e+01
3
# CELL(abcABC): 1322.94304  1322.94304  1322.94304    90.00000    90.00000    90.00000  Step:        2700  Bead:       7 positions{angstrom}  cell{angstrom}
       E  3.67270e+01 -2.94698e+01  7.95335e+01
       E -8.22421e+01 -5.11811e+01 -4.65855e+01
       E -1.14378e+01 -1.30007e+01  4.38771e+01
3
# CELL(abcABC): 1322.94304  1322.94304  1322.94304    90.00000    90.00000    90.00000  Step:        2800  Bead:       7 positions{angstrom}  cell{angstrom}
       E -2.77279e+01 -3.48914e+01 -1.09404e+01
       E -4.40761e+01 -6.25991e+01 -3.50599e+01
       E -2.48019e+00 -2.47569e+01  6.53410e+01
3
# CELL(abcABC): 1322.94304  1322.94304  1322.94304    90.00000    90.00000    90.00000  Step:        2900  Bead:       7 positions{angstrom}  cell{angstrom}
       E -1.60358e+01 -4.37398e+01 -3.24443e+01
       E -5.16110e+01 -3.67392e+01 -3.06977e+01
       E  3.54972e+01 -8.58572e+00  5.58752e+01
3
# CELL(abcABC): 1322.94304  1322.94304  1322.94304    90.00000    90.00000    90.00000  Step:        3000  Bead:       7 positions{angstrom}  cell{angstrom}
       E  4.07986e+00 -2.51152e+01 -3.28047e+01
       E -4.29366e+01 -5.04201e+01  1.77997e+01
       E  1.03868e+01  8.39849e+00  8.21776e+00
3
# CELL(abcABC): 1322.94304  1322.94304  1322.94304    90.00000    90.00000    90.00000  Step:        3100  Bead:       7 positions{angstrom}  cell{angstrom}
       E  2.53702e+01 -4.05689e+01  1.09259e+01
       E -3.44087e+01 -7.93655e+01  6.07059e+01
       E -2.46410e+01  2.31954e+01  1.01313e+01
3
# CELL(abcABC): 1322.94304  1322.94304  1322.94304    90.00000    90.00000    90.00000  Step:        3200  Bead:       7 positions{angstrom}  cell{angstrom}
       E  6.81531e+00  2.50935e+01  5.08018e+01
       E -8.77911e+01 -6.87393e+01  5.44316e+01
       E -1.84745e+01  1.01472e+01  1.15372e+01
3
# CELL(abcABC): 1322.94304  1322.94304  1322.94304    90.00000    90.00000    90.00000  Step:        3300  Bead:       7 positions{angstrom}  cell{angstrom}
       E  2.08353e+01 -7.20492e+00  3.38598e+01
       E -7.59566e+01 -3.06251e+01  5.26525e+01
       E -1.76105e+01 -3.03703e+00  4.80839e+01
3
# CELL(abcABC): 1322.94304  1322.94304  1322.94304    90.00000    90.00000    90.00000  Step:        3400  Bead:       7 positions{angstrom}  cell{angstrom}
       E -1.21218e+01  2.49651e+01  1.02914e+01
       E -8.36916e+01 -5.07710e+01  4.77780e+01
       E -6.19786e+01  1.58295e+01  6.94141e+01
3
# CELL(abcABC): 1322.94304  1322.94304  1322.94304    90.00000    90.00000    90.00000  Step:        3500  Bead:       7 positions{angstrom}  cell{angstrom}
       E -1.55570e+01  2.23413e+01  1.55080e+01
       E -2.85888e+01 -7.09761e+01  3.60315e+01
       E -4.70028e+01  4.19998e+01  5.95517e+01
3
# CELL(abcABC): 1322.94304  1322.94304  1322.94304    90.00000    90.00000    90.00000  Step:        3600  Bead:       7 positions{angstrom}  cell{angstrom}
       E -1.70202e+01  1.22369e+01  2.01059e+01
       E -7.68519e+00 -3.51718e+01  1.73289e+01
       E -8.40361e+01  8.87213e+00  1.60677e+01
3
# CELL(abcABC): 1322.94304  1322.94304  1322.94304    90.00000    90.00000    90.00000  Step:        3700  Bead:       7 positions{angstrom}  cell{angstrom}
       E -6.69742e+01  9.68256e+00 -2.51800e+01
       E -1.52065e+00 -1.16794e+01  2.60431e+01
       E -6.35013e+01 -9.81290e+00 -3.49299e+01
3
# CELL(abcABC): 1322.94304  1322.94304  1322.94304    90.00000    90.00000    90.00000  Step:        3800  Bead:       7 positions{angstrom}  cell{angstrom}
       E -6.92149e+01  6.01689e-01 -3.83408e+01
       E -1.34688e+01 -3.65574e+01 -2.74330e+01
       E -5.62470e+01 -2.78864e+01  3.78858e+00
3
# CELL(abcABC): 1322.94304  1322.94304  1322.94304    90.00000    90.00000    90.00000  Step:        3900  Bead:       7 positions{angstrom}  cell{angstrom}
       E -4.89513e+01  1.33945e+01 -1.53486e+01
       E -1.81924e+01 -3.17300e+01 -4.56516e+01
       E -3.46140e+01 -1.84502e+01  1.23156e+01
3
# CELL(abcABC): 1322.94304  1322.94304  1322.94304    90.00000    90.00000    90.00000  Step:        4000  Bead:       7 positions{angstrom}  cell{angstrom}
       E -8.02940e+01  2.20701e+01 -2.45748e+01
       E -3.12900e+01 -1.10342e+01 -6.02507e+00
       E -5.45718e+01 -1.08041e+00  8.69787e+00
3
# CELL(abcABC): 1322.94304  1322.94304  1322.94304    90.00000    90.00000    90.00000  Step:        4100  Bead:       7 positions{angstrom}  cell{angstrom}
       E -7.78837e+01  7.32233e+01 -5.68749e+01
       E  4.51931e+00  9.11540e+00  4.96985e+01
       E -7.69023e+01  4.03428e+01  4.28561e+01
3
# CELL(abcABC): 1322.94304  1322.94304  1322.94304    90.00000    90.00000    90.00000  Step:        4200  Bead:       7 positions{angstrom}  cell{angstrom}
       E -1.80692e+01  5.85271e+01 -2.95773e+01
       E -4.88763e+01  4.00312e+01  5.83240e+01
       E -6.48551e+01  1.11927e+01  1.25642e+01
3
# CELL(abcABC): 1322.94304  1322.94304  1322.94304    90.00000    90.00000    90.00000  Step:        4300  Bead:       7 positions{angstrom}  cell{angstrom}
       E -1.34227e+01 -1.20706e+00 -7.10336e+01
       E -5.41945e+01  3.69626e+01  6.66189e+01
       E -7.23027e+01 -4.23067e+00  7.83758e+00
3
# CELL(abcABC): 1322.94304  1322.94304  1322.94304    90.00000    90.00000    90.00000  Step:        4400  Bead:       7 positions{angstrom}  cell{angstrom}
       E -4.84777e+01 -4.31344e+00 -6.72112e+01
       E -5.83378e+01  7.83955e+01  4.45465e+01
       E -4.87631e+01 -4.64842e+00 -1.05414e+01
3
# CELL(abcABC): 1322.94304  1322.94304  1322.94304    90.00000    90.00000    90.00000  Step:        4500  Bead:       7 positions{angstrom}  cell{angstrom}
       E -4.28928e+01  1.84210e+01 -7.10501e+01
       E -6.75210e+01  6.35400e+01  1.45386e+01
       E -3.55340e+01 -1.03715e+01  3.23800e+01
3
# CELL(abcABC): 1322.94304  1322.94304  1322.94304    90.00000    90.00000    90.00000  Step:        4600  Bead:       7 positions{angstrom}  cell{angstrom}
       E  1.86232e+01  5.35129e+01 -7.76708e+01
       E -6.34867e+01  2.59318e+01 -8.91678e+00
       E  6.34090e-01  1.17853e+01  3.31313e+01
3
# CELL(abcABC): 1322.94304  1322.94304  1322.94304    90.00000    90.00000    90.00000  Step:        4700  Bead:       7 positions{angstrom}  cell{angstrom}
       E  8.83376e+00  5.79458e+01 -7.36812e+01
       E -4.66235e+01  6.17066e+01 -3.01576e+01
       E  2.36349e+01  1.82401e+01 -7.17712e+00
3
# CELL(abcABC): 1322.94304  1322.94304  1322.94304    90.00000    90.00000    90.00000  Step:        4800  Bead:       7 positions{angstrom}  cell{angstrom}
       E  2.23437e+01  3.14174e+01 -1.40982e+01
       E -4.74832e+01  4.33143e+01 -1.29876e+01
       E  3.06244e+01  3.69588e+01 -2.92731e+01
3
# CELL(abcABC): 1322.94304  1322.94304  1322.94304    90.00000    90.00000    90.00000  Step:        4900  Bead:       7 positions{angstrom}  cell{angstrom}
       E  2.00748e+01  3.59726e+01 -1.75946e+01
       E -8.83451e+01 -2.13278e+01 -2.84318e+01
       E -1.34953e+01  8.97334e+00 -6.82119e+01
3
# CELL(abcABC): 1322.94304  1322.94304  1322.94304    90.00000    90.00000    90.00000  Step:        5000  Bead:       7 positions{angstrom}  cell{angstrom}
       E  3.70924e+01  3.49354e+01  1.44655e+01
       E -4.64934e+01 -3.40213e+01 -5.70055e+00
       E  6.26272e+00 -1.50480e+00 -7.03078e+01
3
# CELL(abcABC): 1322.94304  1322.94304  1322.94304    90.00000    90.00000    90.00000  Step:        5100  Bead:       7 positions{angstrom}  cell{angstrom}
       E  1.97354e+01 -1.32648e+00  3.64555e-01
       E -5.56281e+01 -3.93100e+01 -2.23257e+01
       E -5.02264e+00  2.47114e+01 -1.18912e+01
3
# CELL(abcABC): 1322.94304  1322.94304  1322.94304    90.00000    90.00000    90.00000  Step:        5200  Bead:       7 positions{angstrom}  cell{angstrom}
       E  2.83536e+01  3.83584e+01  2.47301e+01
       E -5.40277e+01  4.87917e-01  1.21172e+01
       E -3.91044e+00  1.92688e+01 -5.78050e+00
3
# CELL(abcABC): 1322.94304  1322.94304  1322.94304    90.00000    90.00000    90.00000  Step:        5300  Bead:       7 positions{angstrom}  cell{angstrom}
       E  1.14383e+01  5.34252e+01  5.07674e+01
       E -3.25748e+01  2.77611e+01 -1.57559e+01
       E  3.64986e+01  3.80935e+01  1.62212e+01
3
# CELL(abcABC): 1322.94304  1322.94304  1322.94304    90.00000    90.00000    90.00000  Step:        5400  Bead:       7 positions{angstrom}  cell{angstrom}
       E  1.87222e+01  3.16363e+01  5.29144e+01
       E -5.40531e+01  1.15074e+01 -4.18806e+01
       E  1.10959e+01  3.08625e+00  3.22251e+01
3
# CELL(abcABC): 1322.94304  1322.94304  1322.94304    90.00000    90.00000    90.00000  Step:        5500  Bead:       7 positions{angstrom}  cell{angstrom}
       E -5.02715e+00  4.18369e+01  5.26085e+01
       E -5.71241e+01  9.40111e+00 -3.75232e+01
       E  2.52705e+00  4.09002e+00  4.00288e+01
3
# CELL(abcABC): 1322.94304  1322.94304  1322.94304    90.00000    90.00000    90.00000  Step:        5600  Bead:       7 positions{angstrom}  cell{angstrom}
       E -9.00355e-01  2.49230e+01  2.33363e+01
       E -2.79801e+01  2.08123e+01 -1.05658e+01
       E -2.10300e+01  1.83629e+01  4.59483e+01
3
# CELL(abcABC): 1322.94304  1322.94304  1322.94304    90.00000    90.00000    90.00000  Step:        5700  Bead:       7 positions{angstrom}  cell{angstrom}
       E -3.87702e+01  2.64945e+01 -2.22799e+00
       E  1.19732e+01  3.34529e+01 -1.82509e+01
       E -4.14936e+01  2.33959e+01  1.54418e+01
3
# CELL(abcABC): 1322.94304  1322.94304  1322.94304    90.00000    90.00000    90.00000  Step:        5800  Bead:       7 positions{angstrom}  cell{angstrom}
       E -2.49603e+01  1.55550e+01 -1.88476e+01
       E -9.73286e+00  1.72459e+01 -1.48987e+01
       E -1.79293e+01 -1.73302e+00  2.20688e+01
3
# CELL(abcABC): 1322.94304  1322.94304  1322.94304    90.00000    90.00000    90.00000  Step:        5900  Bead:       7 positions{angstrom}  cell{angstrom}
       E -2.88667e+00 -1.40759e+01  9.70252e+00
       E -3.25448e+01  2.67822e+01 -3.43796e+01
       E -5.76582e+00 -1.32696e+01  7.09272e-01
3
# CELL(abcABC): 1322.94304  1322.94304  1322.94304    90.00000    90.00000    90.00000  Step:        6000  Bead:       7 positions{angstrom}  cell{angstrom}
       E  2.56640e+01 -2.68450e+01 -7.05737e+00
       E -3.10859e+01 -3.23075e+00 -1.55107e+01
       E  1.76755e+01 -2.19627e+01 -4.97387e+00
3
# CELL(abcABC): 1322.94304  1322.94304  1322.94304    90.00000    90.00000    90.00000  Step:        6100  Bead:       7 positions{angstrom}  cell{angstrom}
       E  4.05793e+01 -2.89948e+01 -4.04016e+01
       E  2.99661e+01  2.29882e+01  2.91411e+01
       E  2.54267e+01 -2.12124e+01 -2.83525e+01
3
# CELL(abcABC): 1322.94304  1322.94304  1322.94304    90.00000    90.00000    90.00000  Step:        6200  Bead:       7 positions{angstrom}  cell{angstrom}
       E  3.68184e+01 -4.63347e+01 -8.57374e+01
       E  6.73814e+01 -6.24918e+00 -4.50983e+00
       E  2.61116e+01 -3.99795e+00 -1.02185e+01
3
# CELL(abcABC): 1322.94304  1322.94304  1322.94304    90.00000    90.00000    90.00000  Step:        6300  Bead:       7 positions{angstrom}  cell{angstrom}
       E  4.27645e+01 -4.55499e+01 -5.91119e+01
       E  7.88398e+01 -3.48239e+01  8.48001e-01
       E  3.08366e+01 -2.10509e+01 -1.54780e+01
3
# CELL(abcABC): 1322.94304  1322.94304  1322.94304    90.00000    90.00000    90.00000  Step:        6400  Bead:       7 positions{angstrom}  cell{angstrom}
       E  5.85586e+00 -6.00214e+01 -9.62922e+01
       E  8.62563e+01 -4.18238e+01 -5.04847e+01
       E  7.41265e+00 -3.57851e+01  2.76266e+01
3
# CELL(abcABC): 1322.94304  1322.94304  1322.94304    90.00000    90.00000    90.00000  Step:        6500  Bead:       7 positions{angstrom}  cell{angstrom}
       E -1.96011e+01 -1.02552e+02 -1.03386e+02
       E  5.54868e+01 -4.32967e+01 -3.41979e+01
       E  1.27761e+01 -3.85598e+01  3.99943e+01
3
# CELL(abcABC): 1322.94304  1322.94304  1322.94304    90.00000    90.00000    90.00000  Step:        6600  Bead:       7 positions{angstrom}  cell{angstrom}
       E -1.00046e+01 -9.55462e+01 -1.41760e+02
       E -4.59765e+00 -2.77485e+01 -2.72774e+01
       E  2.09940e+01 -1.23391e+01  3.71229e+01
3
# CELL(abcABC): 1322.94304  1322.94304  1322.94304    90.00000    90.00000    90.00000  Step:        6700  Bead:       7 positions{angstrom}  cell{angstrom}
       E -2.12269e+00 -6.13347e+01 -1.23985e+02
       E  3.62655e+01 -4.54594e+01 -1.40585e+01
       E  5.49283e-01 -1.85998e+00  1.40181e+01
3
# CELL(abcABC): 1322.94304  1322.94304  1322.94304    90.00000    90.00000    90.00000  Step:        6800  Bead:       7 positions{angstrom}  cell{angstrom}
       E  7.84242e-01 -8.07278e+01 -6.87321e+01
       E  2.26929e+01 -7.94368e+00 -8.80712e+00
       E  1.19004e+00  4.32989e+01  1.85156e+00
3
# CELL(abcABC): 1322.94304  1322.94304  1322.94304    90.00000    90.00000    90.00000  Step:        6900  Bead:       7 positions{angstrom}  cell{angstrom}
       E -1.03831e+01 -3.81972e+01 -6.91476e+01
       E  2.46530e+01 -3.27191e+01 -3.10277e+01
       E -1.71081e+01  3.18796e+01  1.37331e+01
3
# CELL(abcABC): 1322.94304  1322.94304  1322.94304    90.00000    90.00000    90.00000  Step:        7000  Bead:       7 positions{angstrom}  cell{angstrom}
       E -5.35647e+01 -4.94805e+01 -5.30223e+01
       E -3.17957e+00  4.84070e+00 -1.16258e+01
       E  2.94675e+01  3.12104e+01  3.50123e+01
3
# CELL(abcABC): 1322.94304  1322.94304  1322.94304    90.00000    90.00000    90.00000  Step:        7100  Bead:       7 positions{angstrom}  cell{angstrom}
       E -2.17324e+01 -4.22094e+01 -1.26164e+01
       E -2.95406e+00  1.46075e+01  3.55583e+01
       E -2.17235e+00  2.00349e+01  6.28305e+01
3
# CELL(abcABC): 1322.94304  1322.94304  1322.94304    90.00000    90.00000    90.00000  Step:        7200  Bead:       7 positions{angstrom}  cell{angstrom}
       E -2.54594e+01 -2.37899e+01 -2.49777e+01
       E -1.99674e+01  2.98487e+01  3.74292e+01
       E  3.98131e+01  3.76742e+01  1.96493e+01
3
# CELL(abcABC): 1322.94304  1322.94304  1322.94304    90.00000    90.00000    90.00000  Step:        7300  Bead:       7 positions{angstrom}  cell{angstrom}
       E  6.52310e-01 -2.61424e+01 -1.04671e+01
       E -7.00371e+00  4.70244e+01  3.34083e+01
       E  8.33876e+01  2.79464e+01 -2.05295e+01
3
# CELL(abcABC): 1322.94304  1322.94304  1322.94304    90.00000    90.00000    90.00000  Step:        7400  Bead:       7 positions{angstrom}  cell{angstrom}
       E -9.35005e+00 -6.12474e+01 -6.95058e+00
       E  1.31926e+01  3.00832e+01  5.81032e+01
       E  1.15281e+02  7.55112e+01 -2.89431e+01
3
# CELL(abcABC): 1322.94304  1322.94304  1322.94304    90.00000    90.00000    90.00000  Step:        7500  Bead:       7 positions{angstrom}  cell{angstrom}
       E -2.62855e+01 -4.81456e+01 -3.13185e+01
       E -1.13824e+01  2.18244e+01  1.77438e+01
       E  6.72504e+01  6.27804e+01 -4.76975e+01
3
# CELL(abcABC): 1322.94304  1322.94304  1322.94304    90.00000    90.00000    90.00000  Step:        7600  Bead:       7 positions{angstrom}  cell{angstrom}
       E -1.26078e+01 -8.93507e+01 -7.69918e+00
       E -1.82778e+01 -5.59131e+01 -2.26762e+01
       E  7.00255e+01  2.68566e+01 -4.53963e+00
3
# CELL(abcABC): 1322.94304  1322.94304  1322.94304    90.00000    90.00000    90.00000  Step:        7700  Bead:       7 positions{angstrom}  cell{angstrom}
       E  5.76000e-01 -1.99268e+01 -2.67768e+01
       E -3.95578e+01 -4.98507e+01 -4.49560e+01
       E  3.57068e+01  2.84228e+01 -2.35279e+01
3
# CELL(abcABC): 1322.94304  1322.94304  1322.94304    90.00000    90.00000    90.00000  Step:        7800  Bead:       7 positions{angstrom}  cell{angstrom}
       E  3.58628e+01 -2.99564e+01 -5.72939e+01
       E  2.25378e+01 -3.87949e+01 -3.91439e+01
       E  4.69355e+01  6.40944e+00 -7.91732e+01
3
# CELL(abcABC): 1322.94304  1322.94304  1322.94304    90.00000    90.00000    90.00000  Step:        7900  Bead:       7 positions{angstrom}  cell{angstrom}
       E  1.31911e+01 -4.15502e+01 -5.29289e+01
       E  3.46036e+01 -5.83637e+01 -1.93892e+01
       E  4.30508e+01  3.07398e+01 -5.38372e+01
3
# CELL(abcABC): 1322.94304  1322.94304  1322.94304    90.00000    90.00000    90.00000  Step:        8000  Bead:       7 positions{angstrom}  cell{angstrom}
       E  5.38952e+00  1.79038e+01 -8.88277e+00
       E  4.55351e+01 -2.73389e+01 -4.23238e+01
       E -8.80824e+00  5.85886e+01 -1.46827e+01
3
# CELL(abcABC): 1322.94304  1322.94304  1322.94304    90.00000    90.00000    90.00000  Step:        8100  Bead:       7 positions{angstrom}  cell{angstrom}
       E  2.20725e+01  1.30494e-01 -1.19682e+01
       E  9.87455e-01 -1.70667e+01 -1.04070e+01
       E  3.70543e+00  6.30862e+00  5.82967e+00
3
# CELL(abcABC): 1322.94304  1322.94304  1322.94304    90.00000    90.00000    90.00000  Step:        8200  Bead:       7 positions{angstrom}  cell{angstrom}
       E  2.05402e+01  3.53454e+01 -4.52033e+01
       E  6.71100e+00 -9.88374e+00  2.96121e+01
       E  3.53216e+01 -5.67218e+00  1.98149e+01
3
# CELL(abcABC): 1322.94304  1322.94304  1322.94304    90.00000    90.00000    90.00000  Step:        8300  Bead:       7 positions{angstrom}  cell{angstrom}
       E  3.94869e+01  5.45150e+00 -5.97694e+01
       E  1.39629e+01  9.18563e+00  4.01489e+01
       E  2.17929e+01 -3.01520e+01  8.92823e+00
3
# CELL(abcABC): 1322.94304  1322.94304  1322.94304    90.00000    90.00000    90.00000  Step:        8400  Bead:       7 positions{angstrom}  cell{angstrom}
       E  2.07839e+01  3.85251e+01 -4.33720e+01
       E  2.36222e+00  4.78512e+00  1.12363e+01
       E  5.80518e+01  9.64701e+00  2.85099e+01
3
# CELL(abcABC): 1322.94304  1322.94304  1322.94304    90.00000    90.00000    90.00000  Step:        8500  Bead:       7 positions{angstrom}  cell{angstrom}
       E -4.49299e+01  1.70918e+01 -4.04488e+00
       E  5.53816e+01 -3.04529e+00  1.06419e+01
       E  5.82841e+01  1.10739e+01  3.72526e+01
3
# CELL(abcABC): 1322.94304  1322.94304  1322.94304    90.00000    90.00000    90.00000  Step:        8600  Bead:       7 positions{angstrom}  cell{angstrom}
       E -5.99572e+01  5.57826e+01 -2.40322e+01
       E  2.55876e+01  1.27572e+01 -3.60874e+01
       E  2.11618e+01 -3.17855e+01  2.58606e+01
3
# CELL(abcABC): 1322.94304  1322.94304  1322.94304    90.00000    90.00000    90.00000  Step:        8700  Bead:       7 positions{angstrom}  cell{angstrom}
       E  4.58176e+00  2.76353e+01 -1.59415e+01
       E  4.82894e+01  2.62733e+01 -1.08411e+01
       E  4.17553e+01 -3.50212e+01 -9.19141e+00
3
# CELL(abcABC): 1322.94304  1322.94304  1322.94304    90.00000    90.00000    90.00000  Step:        8800  Bead:       7 positions{angstrom}  cell{angstrom}
       E -4.05256e+00  2.86068e+01  2.18604e+01
       E  2.13649e+01 -2.21140e+00  2.00812e+01
       E  4.30502e+01 -4.48853e+01  6.65326e+01
3
# CELL(abcABC): 1322.94304  1322.94304  1322.94304    90.00000    90.00000    90.00000  Step:        8900  Bead:       7 positions{angstrom}  cell{angstrom}
       E  1.29616e+01  1.81557e+01  1.33295e+01
       E -9.51581e+00 -6.53913e+01  3.04224e+01
       E  3.70021e+01 -6.05808e+01  3.68104e+01
3
# CELL(abcABC): 1322.94304  1322.94304  1322.94304    90.00000    90.00000    90.00000  Step:        9000  Bead:       7 positions{angstrom}  cell{angstrom}
       E -1.24800e+01  2.07256e+01  2.35771e+01
       E -2.56036e+01 -8.67222e+00  5.50096e+01
       E  3.20846e+01 -5.80954e+01 -6.57407e-01
3
# CELL(abcABC): 1322.94304  1322.94304  1322.94304    90.00000    90.00000    90.00000  Step:        9100  Bead:       7 positions{angstrom}  cell{angstrom}
       E -9.93922e+00  3.57383e+01  1.19799e+01
       E -4.15854e+01 -2.65357e+01  5.52997e+01
       E  1.71076e+01 -6.74600e+01  3.41479e+00
3
# CELL(abcABC): 1322.94304  1322.94304  1322.94304    90.00000    90.00000    90.00000  Step:        9200  Bead:       7 positions{angstrom}  cell{angstrom}
       E  2.94762e+01  3.53053e+01  1.28909e+01
       E  6.10626e+00  1.82963e-01  1.02071e+01
       E  1.46338e+01 -4.85605e+01  2.48300e+01
3
# CELL(abcABC): 1322.94304  1322.94304  1322.94304    90.00000    90.00000    90.00000  Step:        9300  Bead:       7 positions{angstrom}  cell{angstrom}
       E  1.13975e+01  4.56724e+01 -3.96799e+01
       E  4.36086e+00 -4.22477e+01  1.97288e+01
       E  2.14599e+01 -3.30121e+01 -1.21870e+01
3
# CELL(abcABC): 1322.94304  1322.94304  1322.94304    90.00000    90.00000    90.00000  Step:        9400  Bead:       7 positions{angstrom}  cell{angstrom}
       E  2.79721e+01  4.80971e+01 -6.55208e+01
       E -2.75225e+00 -4.55721e+01  2.66935e+01
       E  4.09325e+01 -5.07190e+01  1.00633e+01
3
# CELL(abcABC): 1322.94304  1322.94304  1322.94304    90.00000    90.00000    90.00000  Step:        9500  Bead:       7 positions{angstrom}  cell{angstrom}
       E  1.13270e+01  2.99159e+01 -2.73198e+01
       E  8.56850e+00 -4.84276e+01  2.63502e+00
       E  1.77627e+01 -3.01605e+01 -1.05526e+01
3
# CELL(abcABC): 1322.94304  1322.94304  1322.94304    90.00000    90.00000    90.00000  Step:        9600  Bead:       7 positions{angstrom}  cell{angstrom}
       E -2.59186e+01  1.14149e+01 -3.14931e+01
       E  5.93628e+01 -3.74133e+01  3.88112e+01
       E -5.12675e+00 -2.41015e+00  1.65412e+01
3
# CELL(abcABC): 1322.94304  1322.94304  1322.94304    90.00000    90.00000    90.00000  Step:        9700  Bead:       7 positions{angstrom}  cell{angstrom}
       E -6.05227e+00 -1.51416e+01 -8.66492e+01
       E  4.85021e+01 -6.17214e+01  1.74607e+01
       E  1.90254e+01 -4.84959e+01  2.27184e+01
3
# CELL(abcABC): 1322.94304  1322.94304  1322.94304    90.00000    90.00000    90.00000  Step:        9800  Bead:       7 positions{angstrom}  cell{angstrom}
       E -1.72794e+01 -5.78505e+01 -7.55065e+01
       E  3.63265e+01 -8.40509e+01 -8.05907e+00
       E -6.17687e+00 -3.02358e+01  1.99009e+01
3