3
# CELL(abcABC): 1322.94304  1322.94304  1322.94304    90.00000    90.00000    90.00000  Step:           0  Bead:       0 positions{angstrom}  cell{angstrom}
       E -4.44509e+01 -1.79920e+01 -2.64589e+00
       E  5.82095e+00  3.49257e+01 -1.58753e+00
       E  3.65132e+01 -3.75716e+01  2.54005e+01
3
# CELL(abcABC): 1322.94304  1322.94304  1322.94304    90.00000    90.00000    90.00000  Step:         100  Bead:       0 positions{angstrom}  cell{angstrom}
       E -2.49796e+01 -2.84402e+01  1.08318e+01
       E -8.14374e+00  1.30742e+00 -2.38163e+01
       E  1.95232e+01  6.63296e+00  1.62281e+01
3
# CELL(abcABC): 1322.94304  1322.94304  1322.94304    90.00000    90.00000    90.00000  Step:         200  Bead:       0 positions{angstrom}  cell{angstrom}
       E -3.44694e+01 -1.91056e+01  1.20362e+01
       E  3.75103e+01  2.01741e+01 -4.22208e-01
       E -8.83761e-01  3.36052e+01  4.16922e+01
3
# CELL(abcABC): 1322.94304  1322.94304  1322.94304    90.00000    90.00000    90.00000  Step:         300  Bead:       0 positions{angstrom}  cell{angstrom}
       E  1.91633e+01 -3.39972e+00 -6.26478e+01
       E  3.34643e+01 -1.90855e+00  1.96052e+01
       E  1.07549e+01  4.32054e+01  1.90698e+01
3
# CELL(abcABC): 1322.94304  1322.94304  1322.94304    90.00000    90.00000    90.00000  Step:         400  Bead:       0 positions{angstrom}  cell{angstrom}
       E  3.12617e+01  1.33196e+01 -4.22660e+01
       E  3.65111e+01  1.60180e+00  3.98707e+00
       E  1.34599e+00  3.66872e+01  2.63740e+01
3
# CELL(abcABC): 1322.94304  1322.94304  1322.94304    90.00000    90.00000    90.00000  Step:         500  Bead:       0 positions{angstrom}  cell{angstrom}
       E  1.63739e+01  1.19580e-01 -2.52765e+01
       E  1.66696e+01  1.28799e+01  3.03248e+01
       E -6.28007e+00  2.30474e+01  3.41830e+01
3
# CELL(abcABC): 1322.94304  1322.94304  1322.94304    90.00000    90.00000    90.00000  Step:         600  Bead:       0 positions{angstrom}  cell{angstrom}
       E -8.08105e+00  8.76185e-01 -3.55859e+01
       E -6.53124e+00 -1.11951e+01  3.03929e+01
       E -2.34721e+01  2.65676e+01  3.55979e+01
3
# CELL(abcABC): 1322.94304  1322.94304  1322.94304    90.00000    90.00000    90.00000  Step:         700  Bead:       0 positions{angstrom}  cell{angstrom}
       E  1.14572e+01  3.28640e+00 -2.46825e+00
       E -3.49497e+01 -2.81631e+01  2.30962e+01
       E -1.33068e+01  2.06991e+01  1.02665e+01
3
# CELL(abcABC): 1322.94304  1322.94304  1322.94304    90.00000    90.00000    90.00000  Step:         800  Bead:       0 positions{angstrom}  cell{angstrom}
       E  1.91000e+01  2.90107e+01  3.62597e+01
       E  9.09540e+00  4.22955e+00  1.39811e+01
       E -3.98912e+01  2.39162e+01  2.73135e+01
3
# CELL(abcABC): 1322.94304  1322.94304  1322.94304    90.00000    90.00000    90.00000  Step:         900  Bead:       0 positions{angstrom}  cell{angstrom}
       E  1.51235e+01  4.22108e+00  5.09645e+00
       E  4.28298e+01 -7.49666e+00  3.65478e+01
       E -6.91856e+01  5.72089e+01  6.27970e+01
3
# CELL(abcABC): 1322.94304  1322.94304  1322.94304    90.00000    90.00000    90.00000  Step:        1000  Bead:       0 positions{angstrom}  cell{angstrom}
       E  9.41308e-02 -1.18189e+01  6.31868e+00
       E  3.30759e+00  4.70821e-03 -4.14989e+01
       E -3.10637e+01  1.56582e+01  7.33918e+01
3
# CELL(abcABC): 1322.94304  1322.94304  1322.94304    90.00000    90.00000    90.00000  Step:        1100  Bead:       0 positions{angstrom}  cell{angstrom}
       E  2.20394e+01  3.40388e+01 -6.59229e+00
       E  3.21941e+01  9.04728e+00 -3.44908e+01
       E -3.71762e+01  3.47279e+00  5.25656e+01
3
# CELL(abcABC): 1322.94304  1322.94304  1322.94304    90.00000    90.00000    90.00000  Step:        1200  Bead:       0 positions{angstrom}  cell{angstrom}
       E -6.38843e+00  5.37555e+01 -1.68529e+01
       E  9.44805e+00 -1.39610e+01 -5.21506e+01
       E  3.75422e+01  1.83127e+01 -2.24054e-01
3
# CELL(abcABC): 1322.94304  1322.94304  1322.94304    90.00000    90.00000    90.00000  Step:        1300  Bead:       0 positions{angstrom}  cell{angstrom}
       E -9.23813e+00  2.76567e+01 -5.03803e+01
       E  1.21422e+01 -2.83784e+01 -4.63996e+01
       E -3.02285e+01  2.07848e+01 -1.20449e+01
3
# CELL(abcABC): 1322.94304  1322.94304  1322.94304    90.00000    90.00000    90.00000  Step:        1400  Bead:       0 positions{angstrom}  cell{angstrom}
       E -4.76251e+01  7.90949e+00 -3.99466e+01
       E -1.10917e+01 -7.28340e+00 -4.89577e+01
       E -4.20737e+01  5.24127e+01 -3.30123e-01
3
# CELL(abcABC): 1322.94304  1322.94304  1322.94304    90.00000    90.00000    90.00000  Step:        1500  Bead:       0 positions{angstrom}  cell{angstrom}
       E -4.67492e+01  5.48056e+01 -6.68232e+01
       E -5.40291e+01 -3.82321e+01 -2.80395e+01
       E -3.70457e+00  5.88665e+01  4.14512e+01
3
# CELL(abcABC): 1322.94304  1322.94304  1322.94304    90.00000    90.00000    90.00000  Step:        1600  Bead:       0 positions{angstrom}  cell{angstrom}
       E -3.59181e+01  5.64675e+01 -5.17298e+01
       E -2.45009e+01 -5.42382e+01  1.79455e+01
       E -1.42928e+01  5.87951e+01  1.18318e+01
3
# CELL(abcABC): 1322.94304  1322.94304  1322.94304    90.00000    90.00000    90.00000  Step:        1700  Bead:       0 positions{angstrom}  cell{angstrom}
       E -4.51181e+01  2.41122e+01 -4.44607e+00
       E -2.74101e+01 -2.29669e+01 -5.88304e+00
       E -4.81320e+01  4.83887e+01 -7.08132e+00
3
# CELL(abcABC): 1322.94304  1322.94304  1322.94304    90.00000    90.00000    90.00000  Step:        1800  Bead:       0 positions{angstrom}  cell{angstrom}
       E -1.33764e+01  1.44211e+01  2.41635e+01
       E -4.27860e+01 -1.44953e+01  1.70964e+01
       E -4.07116e+01  3.78839e+01  3.75020e+00
3
# CELL(abcABC): 1322.94304  1322.94304  1322.94304    90.00000    90.00000    90.00000  Step:        1900  Bead:       0 positions{angstrom}  cell{angstrom}
       E -3.16027e+01  2.50281e+01  7.67044e+00
       E -3.80913e+01 -2.16444e+01 -1.35458e+01
       E -7.68944e+01  2.24896e+01  4.42236e+01
3
# CELL(abcABC): 1322.94304  1322.94304  1322.94304    90.00000    90.00000    90.00000  Step:        2000  Bead:       0 positions{angstrom}  cell{angstrom}
       E -2.66010e+01  8.27663e-01  1.46932e+01
       E -6.96495e+00 -2.49458e+01  1.12854e+01
       E -6.20518e+01  2.91350e+01  3.78668e+01
3
# CELL(abcABC): 1322.94304  1322.94304  1322.94304    90.00000    90.00000    90.00000  Step:        2100  Bead:       0 positions{angstrom}  cell{angstrom}
       E -5.09554e+01  9.83408e+00 -3.55485e+01
       E -5.31548e+01 -2.15727e+00 -3.67095e+00
       E -5.78629e+01 -1.10293e+01  4.67848e+01
3
# CELL(abcABC): 1322.94304  1322.94304  1322.94304    90.00000    90.00000    90.00000  Step:        2200  Bead:       0 positions{angstrom}  cell{angstrom}
       E -1.47061e+00 -2.50489e+01 -7.77444e+00
       E -4.69744e+01 -7.61185e+00  5.82373e+00
       E -7.30050e+01 -2.43303e+01  3.50836e+01
3
# CELL(abcABC): 1322.94304  1322.94304  1322.94304    90.00000    90.00000    90.00000  Step:        2300  Bead:       0 positions{angstrom}  cell{angstrom}
       E  2.08007e+01  6.86116e-01 -1.16956e+01
       E -4.67234e+01 -2.82173e+01 -1.43908e+01
       E -4.38777e+01  6.05427e+00  2.41492e+01
3
# CELL(abcABC): 1322.94304  1322.94304  1322.94304    90.00000    90.00000    90.00000  Step:        2400  Bead:       0 positions{angstrom}  cell{angstrom}
       E  2.99466e+01 -2.36511e+00  2.47271e+00
       E -1.52703e+01 -3.76059e+01 -2.59619e+01
       E -2.63673e+01  1.30127e+01  5.08429e+01
3
# CELL(abcABC): 1322.94304  1322.94304  1322.94304    90.00000    90.00000    90.00000  Step:        2500  Bead:       0 positions{angstrom}  cell{angstrom}
       E  1.98294e+01 -9.17855e-01  4.23913e+01
       E -4.05086e+00 -3.38976e+01 -2.57710e+00
       E -6.27025e+01 -3.41439e+00  6.52364e+01
3
# CELL(abcABC): 1322.94304  1322.94304  1322.94304    90.00000    90.00000    90.00000  Step:        2600  Bead:       0 positions{angstrom}  cell{angstrom}
       E  3.01452e+01  1.59961e+01  6.96902e+01
       E -4.09740e+01 -7.36532e+01 -1.49977e+01
       E -3.13308e+01 -3.20530e+01  8.21380e+01
3
# CELL(abcABC): 1322.94304  1322.94304  1322.94304    90.00000    90.00000    90.00000  Step:        2700  Bead:       0 positions{angstrom}  cell{angstrom}
       E  1.46702e+01 -1.69837e+01  5.28593e+01
       E -4.48199e+01 -5.03840e+01  1.65519e+00
       E -4.45207e+01 -4.35490e+01  7.33690e+01
3
# CELL(abcABC): 1322.94304  1322.94304  1322.94304    90.00000    90.00000    90.00000  Step:        2800  Bead:       0 positions{angstrom}  cell{angstrom}
       E  2.55660e+01 -2.63887e+01  4.30435e+01
       E -4.57473e+01 -4.69286e+01 -9.07254e+00
       E -3.09523e+01 -4.81238e+01  8.17892e+01
3
# CELL(abcABC): 1322.94304  1322.94304  1322.94304    90.00000    90.00000    90.00000  Step:        2900  Bead:       0 positions{angstrom}  cell{angstrom}
       E  6.94077e+00 -6.66604e+01  3.80701e+01
       E -3.25682e+01 -5.33754e+01  1.99278e+01
       E -5.13323e+01 -4.55745e+01  7.55212e+01
3
# CELL(abcABC): 1322.94304  1322.94304  1322.94304    90.00000    90.00000    90.00000  Step:        3000  Bead:       0 positions{angstrom}  cell{angstrom}
       E  1.42861e+01 -2.09129e+01  3.10660e+01
       E -3.90892e+01 -7.07345e+01  1.29578e+01
       E -3.89909e+01 -2.71352e+01  5.22778e+01
3
# CELL(abcABC): 1322.94304  1322.94304  1322.94304    90.00000    90.00000    90.00000  Step:        3100  Bead:       0 positions{angstrom}  cell{angstrom}
       E -2.95919e-01 -2.70045e+00  1.51081e+01
       E -2.36160e+01 -6.30061e+01  4.77180e+01
       E -4.65565e+01 -2.01029e+01  1.99849e+01
3
# CELL(abcABC): 1322.94304  1322.94304  1322.94304    90.00000    90.00000    90.00000  Step:        3200  Bead:       0 positions{angstrom}  cell{angstrom}
       E  2.90154e+01  4.88638e+00  3.69101e+01
       E -5.63871e+01 -6.55558e+01  4.28450e+01
       E -2.43525e+01 -4.33801e+01  5.99096e+01
3
# CELL(abcABC): 1322.94304  1322.94304  1322.94304    90.00000    90.00000    90.00000  Step:        3300  Bead:       0 positions{angstrom}  cell{angstrom}
       E  2.65426e+01  4.23103e+01  8.03738e+01
       E -7.22383e+01 -3.48494e+01  4.80385e+01
       E -3.58949e+01  1.30215e+01  8.96234e+01
3
# CELL(abcABC): 1322.94304  1322.94304  1322.94304    90.00000    90.00000    90.00000  Step:        3400  Bead:       0 positions{angstrom}  cell{angstrom}
       E -3.46605e+00  3.41936e+01  4.55209e+01
       E -5.37589e+01 -2.84633e+01  6.56057e+01
       E -3.66555e+01  7.65974e+00  6.64336e+01
3
# CELL(abcABC): 1322.94304  1322.94304  1322.94304    90.00000    90.00000    90.00000  Step:        3500  Bead:       0 positions{angstrom}  cell{angstrom}
       E -3.10984e+01  3.92095e+01  2.89170e+01
       E -6.25126e+01 -4.94615e+01  3.86271e+01
       E -7.66413e+01  1.65280e+00  3.64425e+01
3
# CELL(abcABC): 1322.94304  1322.94304  1322.94304    90.00000    90.00000    90.00000  Step:        3600  Bead:       0 positions{angstrom}  cell{angstrom}
       E -5.05064e+01 -3.69890e+00 -1.61859e+01
       E -7.27901e+01 -4.79892e+01  2.81321e+01
       E -8.73691e+01 -5.79860e+01  1.92852e+01
3
# CELL(abcABC): 1322.94304  1322.94304  1322.94304    90.00000    90.00000    90.00000  Step:        3700  Bead:       0 positions{angstrom}  cell{angstrom}
       E -4.23142e+01  4.34182e+00 -3.44289e+01
       E -2.61548e+01 -3.19142e+01  1.46736e+01
       E -6.46552e+01 -2.84017e+01  2.40241e+01
3
# CELL(abcABC): 1322.94304  1322.94304  1322.94304    90.00000    90.00000    90.00000  Step:        3800  Bead:       0 positions{angstrom}  cell{angstrom}
       E -3.82674e+01 -3.69267e+01  1.15728e+01
       E -1.99532e+01 -3.32355e+01 -3.66685e+01
       E -5.23742e+01 -4.60862e+01  3.30562e+01
3
# CELL(abcABC): 1322.94304  1322.94304  1322.94304    90.00000    90.00000    90.00000  Step:        3900  Bead:       0 positions{angstrom}  cell{angstrom}
       E -4.06184e+01 -4.66993e+00  6.66445e+00
       E -4.42388e+01 -2.51978e+01 -1.45391e+01
       E -6.69849e+01 -3.64538e+01  3.16492e+01
3
# CELL(abcABC): 1322.94304  1322.94304  1322.94304    90.00000    90.00000    90.00000  Step:        4000  Bead:       0 positions{angstrom}  cell{angstrom}
       E -3.25454e+01  3.68523e+00 -7.25699e+00
       E -4.52420e+01 -1.77583e+01 -2.83788e+01
       E -7.54690e+01 -3.46177e+01  7.43614e+00
3
# CELL(abcABC): 1322.94304  1322.94304  1322.94304    90.00000    90.00000    90.00000  Step:        4100  Bead:       0 positions{angstrom}  cell{angstrom}
       E -5.88895e+01  3.81982e+01 -2.63499e+01
       E -7.21114e+00  2.85237e+01  1.14993e+01
       E -8.29167e+01  1.39182e+01 -1.97765e+01
3
# CELL(abcABC): 1322.94304  1322.94304  1322.94304    90.00000    90.00000    90.00000  Step:        4200  Bead:       0 positions{angstrom}  cell{angstrom}
       E -3.00372e+01  2.50843e+00 -5.18999e+01
       E -4.65275e+01  4.08997e+01  1.03612e+01
       E -7.25144e+01 -3.12125e+01 -1.27796e+01
3
# CELL(abcABC): 1322.94304  1322.94304  1322.94304    90.00000    90.00000    90.00000  Step:        4300  Bead:       0 positions{angstrom}  cell{angstrom}
       E -4.12110e+01 -5.54564e+00 -9.27918e+01
       E -3.26578e+01  4.18160e+01 -9.89817e-01
       E -3.40137e+01 -2.92830e+01  1.82435e+01
3
# CELL(abcABC): 1322.94304  1322.94304  1322.94304    90.00000    90.00000    90.00000  Step:        4400  Bead:       0 positions{angstrom}  cell{angstrom}
       E -2.40004e+01  4.30487e+01 -8.56693e+01
       E -6.14329e+01  7.75976e+01  4.14234e+01
       E -3.67959e+01 -5.75122e+00  2.23316e+01
3
# CELL(abcABC): 1322.94304  1322.94304  1322.94304    90.00000    90.00000    90.00000  Step:        4500  Bead:       0 positions{angstrom}  cell{angstrom}
       E -3.60645e+01  2.68823e+01 -5.83914e+01
       E -7.50066e+01  6.27989e+01  3.50977e+01
       E -1.84825e+01 -6.71990e-01  1.64577e+00
3
# CELL(abcABC): 1322.94304  1322.94304  1322.94304    90.00000    90.00000    90.00000  Step:        4600  Bead:       0 positions{angstrom}  cell{angstrom}
       E -3.11566e+01  3.26779e+01  3.06171e-01
       E -3.38659e+01  4.36265e+01  3.81271e+01
       E  1.80272e+01 -1.99952e+01  2.34830e+01
3
# CELL(abcABC): 1322.94304  1322.94304  1322.94304    90.00000    90.00000    90.00000  Step:        4700  Bead:       0 positions{angstrom}  cell{angstrom}
       E -1.10316e+01  1.31359e+01 -5.55340e+01
       E -4.98443e+01  7.17232e+00 -9.60782e+00
       E -2.71406e+00 -1.31214e+01  4.06199e+01
3
# CELL(abcABC): 1322.94304  1322.94304  1322.94304    90.00000    90.00000    90.00000  Step:        4800  Bead:       0 positions{angstrom}  cell{angstrom}
       E  2.25774e+01  3.65069e+01 -2.42004e+01
       E -6.16441e+01 -2.73748e+01 -3.94658e+01
       E  1.11949e+01 -7.65995e+00 -1.75087e+01
3
# CELL(abcABC): 1322.94304  1322.94304  1322.94304    90.00000    90.00000    90.00000  Step:        4900  Bead:       0 positions{angstrom}  cell{angstrom}
       E  5.55918e+01  2.46979e+01 -4.43121e+01
       E -6.54620e+01 -5.12424e+01 -1.30610e+01
       E  2.02628e+01 -8.66856e+00 -6.51568e+01
3
# CELL(abcABC): 1322.94304  1322.94304  1322.94304    90.00000    90.00000    90.00000  Step:        5000  Bead:       0 positions{angstrom}  cell{angstrom}
       E  7.73335e+01  6.68288e+00 -2.44191e+01
       E -6.42130e+01 -5.22166e+01 -4.28132e+01
       E  1.68167e+01 -1.96485e+01 -3.00255e+01
3
# CELL(abcABC): 1322.94304  1322.94304  1322.94304    90.00000    90.00000    90.00000  Step:        5100  Bead:       0 positions{angstrom}  cell{angstrom}
       E  8.25661e+01  5.85258e+01  1.60480e+01
       E -6.75170e+01 -4.52640e+01 -2.84070e+01
       E  2.27804e+01 -8.78978e+00 -7.55556e+00
3
# CELL(abcABC): 1322.94304  1322.94304  1322.94304    90.00000    90.00000    90.00000  Step:        5200  Bead:       0 positions{angstrom}  cell{angstrom}
       E  4.15121e+01  2.48336e+01 -1.06052e+01
       E -4.86048e+01  3.14990e+00 -3.52135e+00
       E  9.28422e-01  2.21544e+01 -3.46604e+01
3
# CELL(abcABC): 1322.94304  1322.94304  1322.94304    90.00000    90.00000    90.00000  Step:        5300  Bead:       0 positions{angstrom}  cell{angstrom}
       E -1.51731e+00  2.56489e+01  1.35988e+01
       E -5.84455e+01  4.70652e+01  2.71823e+00
       E  9.07148e+00  2.01544e+01 -6.52908e+00
3
# CELL(abcABC): 1322.94304  1322.94304  1322.94304    90.00000    90.00000    90.00000  Step:        5400  Bead:       0 positions{angstrom}  cell{angstrom}
       E  5.15089e+00  2.05236e+01  2.05314e+01
       E -6.50680e+01 -1.04383e+00 -4.44657e+01
       E  1.46884e+01  8.91195e+00 -2.25215e+01
3
# CELL(abcABC): 1322.94304  1322.94304  1322.94304    90.00000    90.00000    90.00000  Step:        5500  Bead:       0 positions{angstrom}  cell{angstrom}
       E  1.94057e+01  1.42998e+01  4.54175e+00
       E -3.35185e+01  6.28143e+00 -1.55524e+00
       E -2.20129e+01  4.18119e+01  5.30257e+00
3
# CELL(abcABC): 1322.94304  1322.94304  1322.94304    90.00000    90.00000    90.00000  Step:        5600  Bead:       0 positions{angstrom}  cell{angstrom}
       E  2.03167e+01  1.84699e+01  1.00380e+01
       E -3.69038e+01  3.53607e+01 -8.94550e+00
       E  1.43777e+00  2.76597e+01  5.02556e+00
3
# CELL(abcABC): 1322.94304  1322.94304  1322.94304    90.00000    90.00000    90.00000  Step:        5700  Bead:       0 positions{angstrom}  cell{angstrom}
       E -1.12974e+01  1.65736e+01 -8.49995e+00
       E -1.82910e+01  1.82657e+01 -2.62003e+01
       E -4.81124e+01 -1.50647e+01  1.89335e+01
3
# CELL(abcABC): 1322.94304  1322.94304  1322.94304    90.00000    90.00000    90.00000  Step:        5800  Bead:       0 positions{angstrom}  cell{angstrom}
       E -3.18595e+01  3.66486e+01 -6.65751e+00
       E -3.86894e+01  1.61182e+01  2.37475e+01
       E -1.78329e+01 -3.69868e+01 -1.22846e+01
3
# CELL(abcABC): 1322.94304  1322.94304  1322.94304    90.00000    90.00000    90.00000  Step:        5900  Bead:       0 positions{angstrom}  cell{angstrom}
       E -1.36131e+00  1.68762e+01  1.22359e+01
       E -3.10212e+01  3.68603e+01 -1.73065e+01
       E -2.13511e+01 -4.53406e+01 -1.17901e+01
3
# CELL(abcABC): 1322.94304  1322.94304  1322.94304    90.00000    90.00000    90.00000  Step:        6000  Bead:       0 positions{angstrom}  cell{angstrom}
       E -7.11980e+00 -7.64059e+00 -3.77660e+01
       E -7.46288e+00 -4.52631e+00 -1.99033e+01
       E  1.80419e+01 -5.71698e+01 -2.48981e+01
3
# CELL(abcABC): 1322.94304  1322.94304  1322.94304    90.00000    90.00000    90.00000  Step:        6100  Bead:       0 positions{angstrom}  cell{angstrom}
       E  1.92867e+01 -2.43952e+01 -2.84216e+01
       E  2.79786e+01 -2.63678e+01 -3.90708e+01
       E  2.02726e+01 -2.89194e+01 -2.36885e+00
3
# CELL(abcABC): 1322.94304  1322.94304  1322.94304    90.00000    90.00000    90.00000  Step:        6200  Bead:       0 positions{angstrom}  cell{angstrom}
       E  4.49229e+01 -5.66818e+01 -7.40990e+01
       E  6.59164e+01 -2.68235e+01  3.48020e+00
       E  1.41653e+01 -3.92460e+01 -1.75002e+01
3
# CELL(abcABC): 1322.94304  1322.94304  1322.94304    90.00000    90.00000    90.00000  Step:        6300  Bead:       0 positions{angstrom}  cell{angstrom}
       E  3.27681e+01 -7.84753e+01 -1.17171e+02
       E  6.87568e+01 -2.99466e+01 -1.14868e+01
       E  1.87510e+01 -2.64309e+01  2.54501e+01
3
# CELL(abcABC): 1322.94304  1322.94304  1322.94304    90.00000    90.00000    90.00000  Step:        6400  Bead:       0 positions{angstrom}  cell{angstrom}
       E  1.61103e+00 -8.72787e+01 -1.08323e+02
       E  6.54904e+01 -2.67439e+01 -5.47379e+00
       E  5.01594e+00 -1.58699e+01  1.98247e+01
3
# CELL(abcABC): 1322.94304  1322.94304  1322.94304    90.00000    90.00000    90.00000  Step:        6500  Bead:       0 positions{angstrom}  cell{angstrom}
       E  9.42065e+00 -7.82967e+01 -1.16315e+02
       E  2.09330e+01 -1.04786e+01 -5.13200e+01
       E -2.03712e+01 -7.47139e+00 -9.10814e+00
3
# CELL(abcABC): 1322.94304  1322.94304  1322.94304    90.00000    90.00000    90.00000  Step:        6600  Bead:       0 positions{angstrom}  cell{angstrom}
       E  3.84652e+00 -7.23100e+01 -1.22111e+02
       E  4.24965e+00 -2.24646e+01 -2.11367e+01
       E -3.20173e+01 -4.88236e+01  8.49262e+00
3
# CELL(abcABC): 1322.94304  1322.94304  1322.94304    90.00000    90.00000    90.00000  Step:        6700  Bead:       0 positions{angstrom}  cell{angstrom}
       E  1.76917e+01 -8.45579e+01 -1.20926e+02
       E  3.56445e+01 -1.11330e+01 -3.33051e+01
       E -3.97018e+01 -1.75299e+01  4.27920e+01
3
# CELL(abcABC): 1322.94304  1322.94304  1322.94304    90.00000    90.00000    90.00000  Step:        6800  Bead:       0 positions{angstrom}  cell{angstrom}
       E  7.81601e+00 -7.99740e+01 -1.09949e+02
       E  3.00842e+01 -2.23908e+01 -1.49479e+01
       E -3.29676e+00  1.13845e+01  5.03392e+01
3
# CELL(abcABC): 1322.94304  1322.94304  1322.94304    90.00000    90.00000    90.00000  Step:        6900  Bead:       0 positions{angstrom}  cell{angstrom}
       E -1.24936e+01 -8.89765e+01 -6.87625e+01
       E  5.42836e+00 -1.01637e+01  3.10315e+00
       E  2.14363e+01 -2.70351e+01  2.12449e+01
3
# CELL(abcABC): 1322.94304  1322.94304  1322.94304    90.00000    90.00000    90.00000  Step:        7000  Bead:       0 positions{angstrom}  cell{angstrom}
       E  1.60502e+00 -3.79190e+01 -3.15579e+01
       E -8.18452e+00  3.50198e+01 -2.88900e+01
       E  2.28329e+01  2.81089e+01  4.13894e+01
3
# CELL(abcABC): 1322.94304  1322.94304  1322.94304    90.00000    90.00000    90.00000  Step:        7100  Bead:       0 positions{angstrom}  cell{angstrom}
       E -1.20991e+01 -2.41244e+01 -3.84521e+01
       E -1.44293e+01  5.09740e+01  1.14720e+01
       E  2.94739e+01  2.75774e+01  1.48218e+01
3
# CELL(abcABC): 1322.94304  1322.94304  1322.94304    90.00000    90.00000    90.00000  Step:        7200  Bead:       0 positions{angstrom}  cell{angstrom}
       E -1.13213e+01 -1.70088e+01 -6.15060e+01
       E -4.47402e+01  4.29257e+01  3.54427e+01
       E  2.10216e+01  4.74155e+01  1.50583e+01
3
# CELL(abcABC): 1322.94304  1322.94304  1322.94304    90.00000    90.00000    90.00000  Step:        7300  Bead:       0 positions{angstrom}  cell{angstrom}
       E  3.59633e+01 -3.20182e+01 -6.06346e+01
       E -3.93696e+01  3.28191e+01  2.44393e+01
       E  4.96217e+01  2.29363e+01 -1.35978e+01
3
# CELL(abcABC): 1322.94304  1322.94304  1322.94304    90.00000    90.00000    90.00000  Step:        7400  Bead:       0 positions{angstrom}  cell{angstrom}
       E  3.11795e+01  5.65087e+00 -3.01230e+01
       E -9.28015e+00  4.60002e+00  3.79278e+01
       E  3.97482e+01  2.53779e+01 -3.45750e+01
3
# CELL(abcABC): 1322.94304  1322.94304  1322.94304    90.00000    90.00000    90.00000  Step:        7500  Bead:       0 positions{angstrom}  cell{angstrom}
       E -1.28067e+01 -4.07029e+01 -4.05618e+01
       E -4.45444e+01 -1.15301e+00  2.91124e+01
       E  5.48264e+01  5.37860e+01 -4.23919e+01
3
# CELL(abcABC): 1322.94304  1322.94304  1322.94304    90.00000    90.00000    90.00000  Step:        7600  Bead:       0 positions{angstrom}  cell{angstrom}
       E -2.91688e+01 -6.88309e+01 -3.89633e+01
       E -2.32275e+01 -3.07956e+01 -5.61484e+00
       E  5.91777e+01  6.01061e+01 -7.78883e+00
3
# CELL(abcABC): 1322.94304  1322.94304  1322.94304    90.00000    90.00000    90.00000  Step:        7700  Bead:       0 positions{angstrom}  cell{angstrom}
       E -1.14904e+01 -8.55530e+01 -4.73428e+01
       E -5.68029e+00 -6.82559e+01 -7.24647e+00
       E  4.14503e+01  1.11668e+01 -4.59613e+00
3
# CELL(abcABC): 1322.94304  1322.94304  1322.94304    90.00000    90.00000    90.00000  Step:        7800  Bead:       0 positions{angstrom}  cell{angstrom}
       E -3.14905e+00 -5.35831e+01 -4.78595e+01
       E  4.04811e+01 -5.22648e+01 -3.25597e+01
       E  4.80499e+01 -1.85398e+01 -4.95675e+01
3
# CELL(abcABC): 1322.94304  1322.94304  1322.94304    90.00000    90.00000    90.00000  Step:        7900  Bead:       0 positions{angstrom}  cell{angstrom}
       E  9.48412e-01 -3.42929e+00 -2.57854e+01
       E  3.03519e+01 -1.63914e+01 -4.25211e+01
       E  8.95342e+01  6.42400e+00 -4.95651e+01
3
# CELL(abcABC): 1322.94304  1322.94304  1322.94304    90.00000    90.00000    90.00000  Step:        8000  Bead:       0 positions{angstrom}  cell{angstrom}
       E  1.00958e+01  1.85740e+01 -8.05301e+00
       E  2.46960e+00 -2.47245e+01 -5.56336e+01
       E  4.15936e+01 -1.98719e+00 -1.84371e+01
3
# CELL(abcABC): 1322.94304  1322.94304  1322.94304    90.00000    90.00000    90.00000  Step:        8100  Bead:       0 positions{angstrom}  cell{angstrom}
       E  4.92389e+01  5.47735e+01 -1.51772e+01
       E -8.20594e+00 -6.58474e+00 -2.47847e+01
       E -2.80868e+01 -3.28808e+01 -7.84459e+00
3
# CELL(abcABC): 1322.94304  1322.94304  1322.94304    90.00000    90.00000    90.00000  Step:        8200  Bead:       0 positions{angstrom}  cell{angstrom}
       E  3.01693e+01  7.83293e+00 -1.13228e+01
       E -7.01031e+00  2.17253e+01 -2.86644e+01
       E  1.10939e+00 -4.58329e+01  1.79105e+01
3
# CELL(abcABC): 1322.94304  1322.94304  1322.94304    90.00000    90.00000    90.00000  Step:        8300  Bead:       0 positions{angstrom}  cell{angstrom}
       E  3.38737e+01  2.55351e+01 -1.42095e+01
       E  3.97779e+01  5.49218e+00  1.04457e+01
       E  6.65138e-01 -3.50520e+01  2.20382e+01
3
# CELL(abcABC): 1322.94304  1322.94304  1322.94304    90.00000    90.00000    90.00000  Step:        8400  Bead:       0 positions{angstrom}  cell{angstrom}
       E  4.33272e+01 -1.62951e+01 -1.96502e+01
       E  8.16338e+00  1.64276e+01  1.97722e+01
       E  2.85916e+01 -2.96276e+01  4.58090e+01
3
# CELL(abcABC): 1322.94304  1322.94304  1322.94304    90.00000    90.00000    90.00000  Step:        8500  Bead:       0 positions{angstrom}  cell{angstrom}
       E -1.98805e+01 -2.91506e+00 -1.55258e+00
       E  2.53731e+01  2.28861e+01  2.70236e+01
       E  3.61492e+01  8.40659e+00  3.06765e+01
3
# CELL(abcABC): 1322.94304  1322.94304  1322.94304    90.00000    90.00000    90.00000  Step:        8600  Bead:       0 positions{angstrom}  cell{angstrom}
       E -8.69300e-01 -2.18540e+00 -2.35370e+01
       E  3.65838e+01 -4.67207e+00  2.24973e+01
       E  4.88988e+01  2.53715e+01  4.57571e+01
3
# CELL(abcABC): 1322.94304  1322.94304  1322.94304    90.00000    90.00000    90.00000  Step:        8700  Bead:       0 positions{angstrom}  cell{angstrom}
       E -4.63138e+01  2.89711e+01 -3.71684e+01
       E  1.15799e+01 -2.18196e+01 -1.55876e+01
       E  7.49790e+01 -2.63758e+01  1.93476e+01
3
# CELL(abcABC): 1322.94304  1322.94304  1322.94304    90.00000    90.00000    90.00000  Step:        8800  Bead:       0 positions{angstrom}  cell{angstrom}
       E -2.14550e+01  3.21938e+01 -1.95161e+01
       E  1.33268e+01 -3.80544e+01  3.36185e+01
       E  7.10055e+01 -4.71868e+01  4.92644e+01
3
# CELL(abcABC): 1322.94304  1322.94304  1322.94304    90.00000    90.00000    90.00000  Step:        8900  Bead:       0 positions{angstrom}  cell{angstrom}
       E -1.95182e+01  4.65247e+01 -7.03652e+00
       E -1.30934e+01 -3.64206e+01  4.66940e+01
       E  1.27006e+01 -8.07136e+01  6.09110e+01
3
# CELL(abcABC): 1322.94304  1322.94304  1322.94304    90.00000    90.00000    90.00000  Step:        9000  Bead:       0 positions{angstrom}  cell{angstrom}
       E -1.70741e+01  6.93469e+01  2.05921e+01
       E -4.18973e+01 -4.81731e+01  7.46952e+00
       E  2.06371e+01 -7.51614e+01 -1.47558e+00
3
# CELL(abcABC): 1322.94304  1322.94304  1322.94304    90.00000    90.00000    90.00000  Step:        9100  Bead:       0 positions{angstrom}  cell{angstrom}
       E  3.91816e+01  4.13720e+01  3.74775e+01
       E -4.39292e+01  1.27202e+00  1.81840e+01
       E -5.02456e+00 -8.02179e+01 -4.53339e+00
3
# CELL(abcABC): 1322.94304  1322.94304  1322.94304    90.00000    90.00000    90.00000  Step:        9200  Bead:       0 positions{angstrom}  cell{angstrom}
       E  3.02970e+01  2.54214e+01  9.91152e+00
       E -7.55976e-01 -7.92327e+00  6.94864e+01
       E  1.62981e+01 -4.91757e+01 -1.86212e+01
3
# CELL(abcABC): 1322.94304  1322.94304  1322.94304    90.00000    90.00000    90.00000  Step:        9300  Bead:       0 positions{angstrom}  cell{angstrom}
       E  3.87006e+01  6.25291e+01 -6.55778e+01
       E -7.81678e+00 -5.53164e+01  2.64060e+01
       E  6.91889e+01 -5.96454e+00  1.53376e+01
3
# CELL(abcABC): 1322.94304  1322.94304  1322.94304    90.00000    90.00000    90.00000  Step:        9400  Bead:       0 positions{angstrom}  cell{angstrom}
       E  4.02997e+01  3.97588e+01 -4.05364e+01
       E  8.15278e+00 -3.40063e+01  8.46551e+00
       E  1.84108e+01 -2.32469e+00 -2.79309e+00
3
# CELL(abcABC): 1322.94304  1322.94304  1322.94304    90.00000    90.00000    90.00000  Step:        9500  Bead:       0 positions{angstrom}  cell{angstrom}
       E  2.22135e+00  1.33274e+01 -3.83449e+01
       E  3.79357e+01 -2.36736e+01  1.48864e+01
       E  1.33292e+01 -1.17350e+01 -2.91171e+00
3
# CELL(abcABC): 1322.94304  1322.94304  1322.94304    90.00000    90.00000    90.00000  Step:        9600  Bead:       0 positions{angstrom}  cell{angstrom}
       E -1.59868e+01  9.22750e+00 -4.27951e+01
       E  2.33256e+01 -1.98373e+01  1.55302e+01
       E -1.34872e+01 -4.17934e+01 -2.14926e+01
3
# CELL(abcABC): 1322.94304  1322.94304  1322.94304    90.00000    90.00000    90.00000  Step:        9700  Bead:       0 positions{angstrom}  cell{angstrom}
       E -5.08474e+01 -4.01210e+01 -5.10871e+01
       E  6.30929e+01 -6.47085e+01 -1.19722e+01
       E -1.37854e+01 -1.61341e+01 -1.03383e+01
3
# CELL(abcABC): 1322.94304  1322.94304  1322.94304    90.00000    90.00000    90.00000  Step:        9800  Bead:       0 positions{angstrom}  cell{angstrom}
       E -2.80740e+01 -6.89336e+01 -7.22925e+01
       E  6.08270e+01 -8.13069e+01 -2.43856e+01
       E  4.34370e+00 -3.52856e+01  2.77698e+01
3