3
# CELL(abcABC): 1322.94304  1322.94304  1322.94304    90.00000    90.00000    90.00000  Step:           0  Bead:      19 positions{angstrom}  cell{angstrom}
       E  0.00000e+00  0.00000e+00  0.00000e+00
       E  0.00000e+00  0.00000e+00  0.00000e+00
       E  0.00000e+00  0.00000e+00  0.00000e+00
3
# CELL(abcABC): 1322.94304  1322.94304  1322.94304    90.00000    90.00000    90.00000  Step:         100  Bead:      19 positions{angstrom}  cell{angstrom}
       E  1.07457e+01  4.49493e+00 -2.47407e+01
       E -2.87773e+01 -6.13733e+01 -2.62084e+01
       E -1.04123e+00  2.08967e+01 -2.58314e+01
3
# CELL(abcABC): 1322.94304  1322.94304  1322.94304    90.00000    90.00000    90.00000  Step:         200  Bead:      19 positions{angstrom}  cell{angstrom}
       E  3.82979e+01  1.32417e+01 -7.19541e+00
       E  2.48530e+01 -4.04231e+01 -2.02650e+01
       E  5.98538e+00  2.39082e+01 -1.56562e+01
3
# CELL(abcABC): 1322.94304  1322.94304  1322.94304    90.00000    90.00000    90.00000  Step:         300  Bead:      19 positions{angstrom}  cell{angstrom}
       E  5.26814e+00  3.78172e+01  1.30414e+01
       E  2.57104e+01 -1.23797e+01  1.10524e+01
       E -2.03386e+01  2.63135e+01 -3.44598e+01
3
# CELL(abcABC): 1322.94304  1322.94304  1322.94304    90.00000    90.00000    90.00000  Step:         400  Bead:      19 positions{angstrom}  cell{angstrom}
       E -2.24901e+01  3.60224e+01 -6.32480e+00
       E  4.73706e+01 -1.07703e+01 -6.23286e+00
       E -4.96401e+01  5.48955e+00 -1.54407e+01
3
# CELL(abcABC): 1322.94304  1322.94304  1322.94304    90.00000    90.00000    90.00000  Step:         500  Bead:      19 positions{angstrom}  cell{angstrom}
       E -8.51075e+00 -4.98109e+00 -6.14052e+00
       E  5.33861e+01 -3.57646e+00  3.46650e+00
       E -3.18310e+00 -1.04453e+01  2.16057e+01
3
# CELL(abcABC): 1322.94304  1322.94304  1322.94304    90.00000    90.00000    90.00000  Step:         600  Bead:      19 positions{angstrom}  cell{angstrom}
       E -8.88594e+00  1.42451e+01 -9.46434e+00
       E  3.40715e+01 -2.15044e+00 -1.11694e+01
       E  9.89685e+00 -2.25886e+01  1.90644e+01
3
# CELL(abcABC): 1322.94304  1322.94304  1322.94304    90.00000    90.00000    90.00000  Step:         700  Bead:      19 positions{angstrom}  cell{angstrom}
       E  1.83592e+01  3.43023e+01  1.25917e+00
       E  3.83693e+01 -3.71788e+00 -2.04139e+01
       E  1.40605e+00 -6.55180e+00  2.13306e+01
3
# CELL(abcABC): 1322.94304  1322.94304  1322.94304    90.00000    90.00000    90.00000  Step:         800  Bead:      19 positions{angstrom}  cell{angstrom}
       E -2.12612e+01  1.36459e+01  1.30070e+01
       E  4.43338e+01  1.24891e+01  4.65126e+00
       E -2.29487e+01 -2.38941e+01  6.67385e+01
3
# CELL(abcABC): 1322.94304  1322.94304  1322.94304    90.00000    90.00000    90.00000  Step:         900  Bead:      19 positions{angstrom}  cell{angstrom}
       E -3.89128e+01  5.42361e+01 -2.78109e+01
       E  7.33960e+00 -1.05553e+01 -2.82973e+01
       E -5.94298e+01 -2.49835e+01  6.63346e+01
3
# CELL(abcABC): 1322.94304  1322.94304  1322.94304    90.00000    90.00000    90.00000  Step:        1000  Bead:      19 positions{angstrom}  cell{angstrom}
       E  9.56563e+00  3.07793e+01 -1.80989e+01
       E  9.08494e-02 -3.43984e+00 -3.71664e+01
       E -5.01142e+01 -1.50567e+01  5.84406e+01
3
# CELL(abcABC): 1322.94304  1322.94304  1322.94304    90.00000    90.00000    90.00000  Step:        1100  Bead:      19 positions{angstrom}  cell{angstrom}
       E  6.76935e+00 -7.77565e+00 -4.97930e+01
       E  2.09060e+01  1.50904e+00 -3.83565e+01
       E -5.31387e+01  4.42479e+01  4.34455e+01
3
# CELL(abcABC): 1322.94304  1322.94304  1322.94304    90.00000    90.00000    90.00000  Step:        1200  Bead:      19 positions{angstrom}  cell{angstrom}
       E -1.38150e+01  4.13993e+01 -5.81051e+01
       E  1.95487e+01 -1.32422e+01 -2.82412e+01
       E -1.08474e+01  6.58117e+01  3.62279e+00
3
# CELL(abcABC): 1322.94304  1322.94304  1322.94304    90.00000    90.00000    90.00000  Step:        1300  Bead:      19 positions{angstrom}  cell{angstrom}
       E -1.96498e+01  4.61712e+01 -5.90069e+01
       E  4.39189e+01 -4.79489e+01 -4.37722e+01
       E  1.03097e+01  2.71388e+00 -7.23553e+00
3
# CELL(abcABC): 1322.94304  1322.94304  1322.94304    90.00000    90.00000    90.00000  Step:        1400  Bead:      19 positions{angstrom}  cell{angstrom}
       E  1.99821e+00  3.02217e+01 -7.04047e+01
       E  5.11474e+00  4.60396e+00 -3.84565e+01
       E -4.03369e+00 -9.60901e+00  9.82299e+00
3
# CELL(abcABC): 1322.94304  1322.94304  1322.94304    90.00000    90.00000    90.00000  Step:        1500  Bead:      19 positions{angstrom}  cell{angstrom}
       E  6.50433e+00  4.91920e+01  6.03550e-02
       E -2.48301e+01  2.07776e+01  8.52304e-01
       E -1.52236e+01  2.13144e+01  7.93950e+00
3
# CELL(abcABC): 1322.94304  1322.94304  1322.94304    90.00000    90.00000    90.00000  Step:        1600  Bead:      19 positions{angstrom}  cell{angstrom}
       E -2.50881e+01  2.30939e+01 -2.63018e+01
       E -3.40882e+00  1.04978e+01 -2.04758e+01
       E  1.83824e+00  2.69678e+01 -1.86398e+01
3
# CELL(abcABC): 1322.94304  1322.94304  1322.94304    90.00000    90.00000    90.00000  Step:        1700  Bead:      19 positions{angstrom}  cell{angstrom}
       E  5.95497e-01  6.78729e+01  2.36804e+00
       E -3.46506e+01  4.12269e+01  1.28437e+01
       E -1.25349e+01  7.79872e+01  3.93958e+01
3
# CELL(abcABC): 1322.94304  1322.94304  1322.94304    90.00000    90.00000    90.00000  Step:        1800  Bead:      19 positions{angstrom}  cell{angstrom}
       E -1.05304e+01  4.01595e+01  4.75505e+01
       E -5.02240e+01  5.37180e+01  1.44558e+01
       E -4.78742e+01  7.82672e+01  3.54495e+01
3
# CELL(abcABC): 1322.94304  1322.94304  1322.94304    90.00000    90.00000    90.00000  Step:        1900  Bead:      19 positions{angstrom}  cell{angstrom}
       E  2.28540e+01  9.43731e+00  5.24511e+01
       E -6.49891e+01  2.99370e+01  2.33432e+01
       E -1.07969e+02  8.14408e+01  3.98233e+00
3
# CELL(abcABC): 1322.94304  1322.94304  1322.94304    90.00000    90.00000    90.00000  Step:        2000  Bead:      19 positions{angstrom}  cell{angstrom}
       E -2.58242e+01 -5.40179e+01  5.17038e+01
       E -7.60906e+01 -1.59606e+00  2.17446e+01
       E -9.43011e+01  6.91702e+01  1.14775e+01
3
# CELL(abcABC): 1322.94304  1322.94304  1322.94304    90.00000    90.00000    90.00000  Step:        2100  Bead:      19 positions{angstrom}  cell{angstrom}
       E -6.56657e+01 -1.28907e+01  3.98017e+01
       E -5.29685e+01 -1.44324e+01  3.03479e+01
       E -8.21542e+01  9.29990e+01  4.73677e+01
3
# CELL(abcABC): 1322.94304  1322.94304  1322.94304    90.00000    90.00000    90.00000  Step:        2200  Bead:      19 positions{angstrom}  cell{angstrom}
       E -3.01166e+01 -5.64191e+00  3.94541e+01
       E -2.42608e+01 -3.90612e+01 -7.51922e+00
       E -6.25052e+01  4.47507e+01  5.99244e+00
3
# CELL(abcABC): 1322.94304  1322.94304  1322.94304    90.00000    90.00000    90.00000  Step:        2300  Bead:      19 positions{angstrom}  cell{angstrom}
       E -7.20063e+01 -9.93314e+00  5.75323e+01
       E -1.66762e+01 -2.48111e+01  4.93515e+00
       E -5.83422e-01 -2.69347e+01  1.23141e+01
3
# CELL(abcABC): 1322.94304  1322.94304  1322.94304    90.00000    90.00000    90.00000  Step:        2400  Bead:      19 positions{angstrom}  cell{angstrom}
       E -7.75121e+01 -3.64073e+00  3.70113e+01
       E -1.45416e+01 -5.27867e+00  1.54373e+00
       E  6.12566e+00  7.18991e+00  1.89391e+01
3
# CELL(abcABC): 1322.94304  1322.94304  1322.94304    90.00000    90.00000    90.00000  Step:        2500  Bead:      19 positions{angstrom}  cell{angstrom}
       E -6.44090e+01  1.61013e+01  1.61950e+01
       E -2.42085e+01 -5.70116e+01 -3.49976e+01
       E  2.36010e+01 -3.85254e+01  2.31957e+01
3
# CELL(abcABC): 1322.94304  1322.94304  1322.94304    90.00000    90.00000    90.00000  Step:        2600  Bead:      19 positions{angstrom}  cell{angstrom}
       E -4.20809e+01 -4.77545e+00  4.44265e+01
       E -3.85667e+01 -5.41084e+01 -4.57117e+01
       E  1.53872e+01 -2.85934e+01  4.80124e+01
3
# CELL(abcABC): 1322.94304  1322.94304  1322.94304    90.00000    90.00000    90.00000  Step:        2700  Bead:      19 positions{angstrom}  cell{angstrom}
       E -4.35847e+01  1.15020e+01  4.87841e+01
       E -7.80747e+01 -4.75272e+01 -9.16627e+00
       E  2.22916e+01 -3.56069e+01  3.79165e+01
3
# CELL(abcABC): 1322.94304  1322.94304  1322.94304    90.00000    90.00000    90.00000  Step:        2800  Bead:      19 positions{angstrom}  cell{angstrom}
       E -4.83169e+01 -5.73391e+00  3.68488e+01
       E -8.45235e+01 -3.93426e+01 -2.94642e+01
       E  1.02459e+01 -2.49044e+01  2.85662e+01
3
# CELL(abcABC): 1322.94304  1322.94304  1322.94304    90.00000    90.00000    90.00000  Step:        2900  Bead:      19 positions{angstrom}  cell{angstrom}
       E -6.16958e+01  2.98511e+00  2.17870e+01
       E -9.52069e+01 -7.23611e+01  9.81813e+00
       E -2.74059e+00 -1.19478e+01  1.72382e+01
3
# CELL(abcABC): 1322.94304  1322.94304  1322.94304    90.00000    90.00000    90.00000  Step:        3000  Bead:      19 positions{angstrom}  cell{angstrom}
       E -2.93952e+01 -9.79322e+00  4.77082e+01
       E -7.72394e+01 -5.88589e+01  3.24440e+01
       E  9.75020e+00  1.49238e+01  3.22045e+01
3
# CELL(abcABC): 1322.94304  1322.94304  1322.94304    90.00000    90.00000    90.00000  Step:        3100  Bead:      19 positions{angstrom}  cell{angstrom}
       E -5.22249e+01 -1.56377e+01  7.07480e+01
       E -8.84993e+01 -4.23107e+01  2.14868e+01
       E  3.03498e+01  1.65857e+01  3.02827e+01
3
# CELL(abcABC): 1322.94304  1322.94304  1322.94304    90.00000    90.00000    90.00000  Step:        3200  Bead:      19 positions{angstrom}  cell{angstrom}
       E -2.18406e+01  3.87197e+01  1.45282e+01
       E -1.07523e+02 -2.10310e+01  3.09890e+01
       E  2.22415e+01  3.68041e+01  2.54259e+01
3
# CELL(abcABC): 1322.94304  1322.94304  1322.94304    90.00000    90.00000    90.00000  Step:        3300  Bead:      19 positions{angstrom}  cell{angstrom}
       E -4.31135e+00  3.56572e+01  3.10086e+01
       E -1.07215e+02 -6.28448e+01  4.42809e+01
       E  1.53328e+01  5.97778e+01  2.24678e+01
3
# CELL(abcABC): 1322.94304  1322.94304  1322.94304    90.00000    90.00000    90.00000  Step:        3400  Bead:      19 positions{angstrom}  cell{angstrom}
       E -4.39846e+01  1.82922e+01  7.67429e+01
       E -7.33679e+01 -3.31017e+01  3.53167e+01
       E -5.09839e+00  3.55792e+01  2.36549e+01
3
# CELL(abcABC): 1322.94304  1322.94304  1322.94304    90.00000    90.00000    90.00000  Step:        3500  Bead:      19 positions{angstrom}  cell{angstrom}
       E -7.50119e+01  3.67295e+01  5.26685e+01
       E -4.23851e+01 -2.59608e+01  3.40973e+01
       E -2.57232e+01  7.82016e+00  4.72517e+01
3
# CELL(abcABC): 1322.94304  1322.94304  1322.94304    90.00000    90.00000    90.00000  Step:        3600  Bead:      19 positions{angstrom}  cell{angstrom}
       E -5.80272e+01  2.21701e+01  2.90523e+01
       E  3.18514e+00 -2.97519e+01  3.93208e+01
       E -3.52221e+01  2.16307e+01  3.94514e+01
3
# CELL(abcABC): 1322.94304  1322.94304  1322.94304    90.00000    90.00000    90.00000  Step:        3700  Bead:      19 positions{angstrom}  cell{angstrom}
       E -4.52056e+01  2.27255e+01 -4.26539e+01
       E -5.84666e+00 -1.86279e+01  1.19976e+01
       E -6.60226e+01 -6.00467e+00 -2.57713e+01
3
# CELL(abcABC): 1322.94304  1322.94304  1322.94304    90.00000    90.00000    90.00000  Step:        3800  Bead:      19 positions{angstrom}  cell{angstrom}
       E -7.31536e+01 -5.64227e+00 -2.37102e+01
       E -1.38093e+01 -6.32683e+01  2.61344e+01
       E -5.40028e+01  2.67872e+01 -3.06956e+01
3
# CELL(abcABC): 1322.94304  1322.94304  1322.94304    90.00000    90.00000    90.00000  Step:        3900  Bead:      19 positions{angstrom}  cell{angstrom}
       E -1.00158e+02  2.96500e+00 -2.88206e+01
       E -4.07263e+01 -5.39150e+01  7.22480e+00
       E -5.37553e+01 -5.32959e+00 -5.61199e+00
3
# CELL(abcABC): 1322.94304  1322.94304  1322.94304    90.00000    90.00000    90.00000  Step:        4000  Bead:      19 positions{angstrom}  cell{angstrom}
       E -1.14738e+02  2.14056e+01 -4.62020e+01
       E -4.52629e+01 -2.91650e+01  3.53512e+01
       E -3.25976e+01  2.66488e+01  2.09102e+01
3
# CELL(abcABC): 1322.94304  1322.94304  1322.94304    90.00000    90.00000    90.00000  Step:        4100  Bead:      19 positions{angstrom}  cell{angstrom}
       E -6.96017e+01  2.00705e+01 -6.43491e+01
       E -3.79406e+01  1.02173e+01 -1.65885e+01
       E -2.73694e+01 -9.72033e-01  2.01798e+01
3
# CELL(abcABC): 1322.94304  1322.94304  1322.94304    90.00000    90.00000    90.00000  Step:        4200  Bead:      19 positions{angstrom}  cell{angstrom}
       E -7.36738e+01 -1.81961e+01 -1.17822e+02
       E -5.24551e+01  2.20668e+01  2.19216e+01
       E -1.97046e+01  3.92493e+00  4.52260e+01
3
# CELL(abcABC): 1322.94304  1322.94304  1322.94304    90.00000    90.00000    90.00000  Step:        4300  Bead:      19 positions{angstrom}  cell{angstrom}
       E -1.11539e+01  1.07883e+01 -4.02807e+01
       E -4.40702e+01  2.66087e+01  1.27986e+01
       E  2.31219e+00  7.38036e+00  2.89906e+01
3
# CELL(abcABC): 1322.94304  1322.94304  1322.94304    90.00000    90.00000    90.00000  Step:        4400  Bead:      19 positions{angstrom}  cell{angstrom}
       E -3.30933e+01  1.50922e+01 -4.13174e+01
       E -1.52192e+01  5.86947e+01 -3.65344e+01
       E  2.81296e+01 -2.39418e+01  2.29972e+01
3
# CELL(abcABC): 1322.94304  1322.94304  1322.94304    90.00000    90.00000    90.00000  Step:        4500  Bead:      19 positions{angstrom}  cell{angstrom}
       E -4.11507e+01  1.35936e+01 -9.83870e+01
       E -2.30407e+01  7.51256e+01 -1.00725e+01
       E -8.57282e+00 -2.30987e+01  2.65923e+01
3
# CELL(abcABC): 1322.94304  1322.94304  1322.94304    90.00000    90.00000    90.00000  Step:        4600  Bead:      19 positions{angstrom}  cell{angstrom}
       E -1.71778e+01  2.71511e+01 -8.90411e+01
       E -4.60561e+01  1.16975e+02  1.01834e+01
       E -1.13246e+01  1.92606e+01 -2.77214e+00
3
# CELL(abcABC): 1322.94304  1322.94304  1322.94304    90.00000    90.00000    90.00000  Step:        4700  Bead:      19 positions{angstrom}  cell{angstrom}
       E -1.92293e+01  2.21182e+01 -2.78407e+01
       E -4.51523e+01  6.33695e+01 -2.37234e+01
       E -9.17186e-01  3.68208e+00 -1.62742e+01
3
# CELL(abcABC): 1322.94304  1322.94304  1322.94304    90.00000    90.00000    90.00000  Step:        4800  Bead:      19 positions{angstrom}  cell{angstrom}
       E -2.36861e+01  9.36683e+00 -4.55465e+01
       E -5.04607e+01  2.36693e+01  2.78277e+00
       E  2.89438e+01 -2.03740e+01  4.02210e+01
3
# CELL(abcABC): 1322.94304  1322.94304  1322.94304    90.00000    90.00000    90.00000  Step:        4900  Bead:      19 positions{angstrom}  cell{angstrom}
       E  3.30204e+01  6.19398e+00  3.45108e+01
       E -4.40923e+01  8.77881e+00 -2.23604e+01
       E  1.64750e+01 -2.54036e+01  7.99017e+00
3
# CELL(abcABC): 1322.94304  1322.94304  1322.94304    90.00000    90.00000    90.00000  Step:        5000  Bead:      19 positions{angstrom}  cell{angstrom}
       E  4.22014e+01  1.64486e+01  3.75108e+01
       E -4.41242e+01 -4.99888e-01 -2.38517e+01
       E  2.45019e+01  2.87443e+00 -1.92343e+01
3
# CELL(abcABC): 1322.94304  1322.94304  1322.94304    90.00000    90.00000    90.00000  Step:        5100  Bead:      19 positions{angstrom}  cell{angstrom}
       E  2.48231e+01  2.03457e+01  2.64788e+01
       E -5.77887e+01  2.20712e+01 -2.65990e+01
       E -3.46533e-01 -7.92425e+00 -4.58953e+01
3
# CELL(abcABC): 1322.94304  1322.94304  1322.94304    90.00000    90.00000    90.00000  Step:        5200  Bead:      19 positions{angstrom}  cell{angstrom}
       E -2.23693e+01  1.65724e+01  1.09633e+01
       E -3.33462e+01 -1.19978e-01 -4.06141e+01
       E  1.11779e+01  1.63514e+01 -2.80543e+00
3
# CELL(abcABC): 1322.94304  1322.94304  1322.94304    90.00000    90.00000    90.00000  Step:        5300  Bead:      19 positions{angstrom}  cell{angstrom}
       E -6.09822e+00 -2.28170e+00  4.48080e+00
       E -1.42164e+01  5.36044e+01 -5.13952e+00
       E -4.80411e+01  4.01460e+01  1.60033e+01
3
# CELL(abcABC): 1322.94304  1322.94304  1322.94304    90.00000    90.00000    90.00000  Step:        5400  Bead:      19 positions{angstrom}  cell{angstrom}
       E  1.16900e+01 -1.27290e+01  3.06639e+00
       E  1.58646e+01  6.80122e+00  1.04313e+01
       E -3.01919e+01  3.54864e+01  5.60768e+01
3
# CELL(abcABC): 1322.94304  1322.94304  1322.94304    90.00000    90.00000    90.00000  Step:        5500  Bead:      19 positions{angstrom}  cell{angstrom}
       E  3.12694e+01  3.12299e+00 -1.73611e+01
       E -4.43045e+01  1.11614e+01  7.37812e+00
       E -5.59886e+01 -1.18686e+01  5.61220e+01
3
# CELL(abcABC): 1322.94304  1322.94304  1322.94304    90.00000    90.00000    90.00000  Step:        5600  Bead:      19 positions{angstrom}  cell{angstrom}
       E  1.55613e-01  5.75900e+00 -1.88061e+01
       E -5.52343e+01 -6.20344e+00  3.05807e+00
       E -2.80091e+01  2.30583e+00  3.86700e+01
3
# CELL(abcABC): 1322.94304  1322.94304  1322.94304    90.00000    90.00000    90.00000  Step:        5700  Bead:      19 positions{angstrom}  cell{angstrom}
       E  1.31686e+01 -2.98206e+01 -5.37310e+01
       E -5.78097e+01  7.23979e+00 -1.96010e+01
       E -6.49018e+01 -1.60542e+01 -1.63620e+01
3
# CELL(abcABC): 1322.94304  1322.94304  1322.94304    90.00000    90.00000    90.00000  Step:        5800  Bead:      19 positions{angstrom}  cell{angstrom}
       E  5.91017e+00  7.54085e+00 -2.01118e+01
       E -2.90239e+01  3.67839e+01 -1.55088e+01
       E -1.49918e+01  1.73379e+01 -4.65739e+00
3
# CELL(abcABC): 1322.94304  1322.94304  1322.94304    90.00000    90.00000    90.00000  Step:        5900  Bead:      19 positions{angstrom}  cell{angstrom}
       E  4.90733e+00  2.41100e+01 -1.11697e+01
       E -1.86789e+01  1.98541e+01  2.72310e+01
       E  7.93538e+00 -1.80563e+01 -3.72927e+01
3
# CELL(abcABC): 1322.94304  1322.94304  1322.94304    90.00000    90.00000    90.00000  Step:        6000  Bead:      19 positions{angstrom}  cell{angstrom}
       E  7.21272e+00 -3.02313e+01  1.34614e+01
       E  7.80350e+00  1.80809e+00  1.22241e+01
       E  5.50044e+00 -2.48510e+01 -9.86046e-01
3
# CELL(abcABC): 1322.94304  1322.94304  1322.94304    90.00000    90.00000    90.00000  Step:        6100  Bead:      19 positions{angstrom}  cell{angstrom}
       E -3.01216e+01 -4.02153e+01 -2.51041e+01
       E  4.63536e+01  1.11440e+01  1.54905e+01
       E  3.22113e+01 -1.13996e+01 -3.17892e+01
3
# CELL(abcABC): 1322.94304  1322.94304  1322.94304    90.00000    90.00000    90.00000  Step:        6200  Bead:      19 positions{angstrom}  cell{angstrom}
       E  8.47359e-01 -2.74563e+01 -9.12769e+01
       E  9.67327e+01  3.17391e+01  1.45049e+01
       E  1.32976e+01 -2.69956e+01 -2.59864e+00
3
# CELL(abcABC): 1322.94304  1322.94304  1322.94304    90.00000    90.00000    90.00000  Step:        6300  Bead:      19 positions{angstrom}  cell{angstrom}
       E  1.12077e+01 -3.91170e+01 -1.03707e+02
       E  1.04501e+02  7.07825e+00 -2.02642e+01
       E  1.58850e+01 -4.14005e+01 -6.16336e+00
3
# CELL(abcABC): 1322.94304  1322.94304  1322.94304    90.00000    90.00000    90.00000  Step:        6400  Bead:      19 positions{angstrom}  cell{angstrom}
       E  4.89345e+01 -4.46456e+01 -1.21759e+02
       E  3.96981e+01 -1.41277e+01 -4.95533e+01
       E  2.97327e+01 -1.36852e+01 -2.11029e+01
3
# CELL(abcABC): 1322.94304  1322.94304  1322.94304    90.00000    90.00000    90.00000  Step:        6500  Bead:      19 positions{angstrom}  cell{angstrom}
       E  3.80516e+01 -5.58231e+01 -1.09006e+02
       E  1.88370e+01  2.45039e+01 -2.61492e+01
       E  4.78984e+01 -2.21235e+01 -1.15696e+01
3
# CELL(abcABC): 1322.94304  1322.94304  1322.94304    90.00000    90.00000    90.00000  Step:        6600  Bead:      19 positions{angstrom}  cell{angstrom}
       E  1.57313e+01 -8.08366e+01 -6.81514e+01
       E  2.42476e+01 -4.31691e+00 -4.39005e+01
       E  3.27966e+01 -1.94701e+01  1.72200e+00
3
# CELL(abcABC): 1322.94304  1322.94304  1322.94304    90.00000    90.00000    90.00000  Step:        6700  Bead:      19 positions{angstrom}  cell{angstrom}
       E -2.89242e+01 -1.19320e+02 -5.55289e+01
       E  3.01047e+01  3.06238e+00 -3.76603e+00
       E  2.89382e+01 -7.61301e+00  3.95954e+01
3
# CELL(abcABC): 1322.94304  1322.94304  1322.94304    90.00000    90.00000    90.00000  Step:        6800  Bead:      19 positions{angstrom}  cell{angstrom}
       E -4.59050e-01 -9.75791e+01 -7.27303e+01
       E  1.53424e+01 -4.23515e+01 -4.47163e+01
       E  6.40717e+00 -2.96519e+01 -2.32985e+01
3
# CELL(abcABC): 1322.94304  1322.94304  1322.94304    90.00000    90.00000    90.00000  Step:        6900  Bead:      19 positions{angstrom}  cell{angstrom}
       E  1.76464e+01 -7.98239e+01 -4.64852e+01
       E  2.77558e+01 -3.89820e+01 -3.40692e+01
       E -2.87417e+01 -8.75665e+00 -2.13715e+01
3
# CELL(abcABC): 1322.94304  1322.94304  1322.94304    90.00000    90.00000    90.00000  Step:        7000  Bead:      19 positions{angstrom}  cell{angstrom}
       E  3.80538e+01 -5.29206e+01  1.20803e+00
       E  1.48477e+01 -5.76870e+00 -4.44569e+01
       E -1.18031e+00  9.06760e+00 -3.18582e+01
3
# CELL(abcABC): 1322.94304  1322.94304  1322.94304    90.00000    90.00000    90.00000  Step:        7100  Bead:      19 positions{angstrom}  cell{angstrom}
       E  2.98590e+01 -3.35253e+01  5.58701e+00
       E -4.08812e+00 -1.14734e+00  2.87684e+00
       E  4.10877e+01  1.65619e+01 -4.40626e+01
3
# CELL(abcABC): 1322.94304  1322.94304  1322.94304    90.00000    90.00000    90.00000  Step:        7200  Bead:      19 positions{angstrom}  cell{angstrom}
       E  4.55103e+01 -3.76428e+01 -3.55477e+01
       E -4.25285e+01  3.17196e+01  2.83604e+01
       E  5.53089e+01  5.41213e+01 -2.04138e+01
3
# CELL(abcABC): 1322.94304  1322.94304  1322.94304    90.00000    90.00000    90.00000  Step:        7300  Bead:      19 positions{angstrom}  cell{angstrom}
       E  4.72704e+01 -2.84815e+01 -4.06312e+01
       E -3.20174e+01  4.23174e+01  2.66500e+01
       E  5.05893e+01  6.31513e+01 -1.64617e+01
3
# CELL(abcABC): 1322.94304  1322.94304  1322.94304    90.00000    90.00000    90.00000  Step:        7400  Bead:      19 positions{angstrom}  cell{angstrom}
       E -1.59725e+01 -4.39466e+01 -2.98546e+01
       E -3.44241e+01  3.50228e+00 -9.10763e+00
       E  6.05165e+01  6.56684e+01 -1.31436e+01
3
# CELL(abcABC): 1322.94304  1322.94304  1322.94304    90.00000    90.00000    90.00000  Step:        7500  Bead:      19 positions{angstrom}  cell{angstrom}
       E  1.06970e+01 -6.76193e+01 -7.26498e+01
       E -5.49896e+01 -1.54928e+01  1.41690e+01
       E  9.97750e+01  4.22102e+01 -7.98136e+00
3
# CELL(abcABC): 1322.94304  1322.94304  1322.94304    90.00000    90.00000    90.00000  Step:        7600  Bead:      19 positions{angstrom}  cell{angstrom}
       E -1.51792e+01 -7.38901e+01 -5.23319e+01
       E -2.79895e+01 -6.47227e+01 -1.03867e+01
       E  2.34776e+01  2.62580e+01 -2.17252e+01
3
# CELL(abcABC): 1322.94304  1322.94304  1322.94304    90.00000    90.00000    90.00000  Step:        7700  Bead:      19 positions{angstrom}  cell{angstrom}
       E  1.02111e+01 -7.42037e+01 -3.36292e+01
       E -2.31494e+01 -4.47210e+01 -1.82165e+01
       E  6.45589e+01 -1.05140e+01 -3.43423e+01
3
# CELL(abcABC): 1322.94304  1322.94304  1322.94304    90.00000    90.00000    90.00000  Step:        7800  Bead:      19 positions{angstrom}  cell{angstrom}
       E  4.60620e-01 -7.31986e+01 -7.18386e+01
       E -4.12800e+00 -3.76988e+01 -4.19770e+00
       E  3.37422e+01 -1.34440e+01 -3.09421e+01
3
# CELL(abcABC): 1322.94304  1322.94304  1322.94304    90.00000    90.00000    90.00000  Step:        7900  Bead:      19 positions{angstrom}  cell{angstrom}
       E  9.91329e+00 -5.02902e+01 -1.58738e+01
       E  2.18519e+00 -1.60582e+01 -4.76147e+01
       E -8.66756e+00 -1.04651e+01 -5.97213e+01
3
# CELL(abcABC): 1322.94304  1322.94304  1322.94304    90.00000    90.00000    90.00000  Step:        8000  Bead:      19 positions{angstrom}  cell{angstrom}
       E  3.10593e+00  8.56413e+00 -1.49658e+01
       E -2.50784e+01 -5.81292e+00 -5.94697e+00
       E  4.18745e+01 -1.53164e+01 -6.31370e+01
3
# CELL(abcABC): 1322.94304  1322.94304  1322.94304    90.00000    90.00000    90.00000  Step:        8100  Bead:      19 positions{angstrom}  cell{angstrom}
       E -7.55170e+00  1.42244e+01 -3.28484e+01
       E -1.80014e+01  6.05429e+00 -6.46913e+00
       E  2.15912e+01 -1.10048e+01 -9.42292e+00
3
# CELL(abcABC): 1322.94304  1322.94304  1322.94304    90.00000    90.00000    90.00000  Step:        8200  Bead:      19 positions{angstrom}  cell{angstrom}
       E -7.57871e-01  2.34266e+01 -4.42250e+01
       E -3.31302e+01 -3.61721e+01 -1.93235e+01
       E  8.23832e+00 -3.91756e+01  5.32874e+01
3
# CELL(abcABC): 1322.94304  1322.94304  1322.94304    90.00000    90.00000    90.00000  Step:        8300  Bead:      19 positions{angstrom}  cell{angstrom}
       E  1.30450e+01  2.94125e+01 -7.31717e+00
       E -2.83429e+01  3.20146e+00 -1.83811e+01
       E  2.21932e+00 -4.75450e+01  5.16136e+01
3
# CELL(abcABC): 1322.94304  1322.94304  1322.94304    90.00000    90.00000    90.00000  Step:        8400  Bead:      19 positions{angstrom}  cell{angstrom}
       E -2.49603e+01  9.28537e+00 -1.13043e+01
       E  1.69243e+01  1.63157e+01 -7.49609e+00
       E -3.20097e-01 -5.89391e+01  4.75456e+01
3
# CELL(abcABC): 1322.94304  1322.94304  1322.94304    90.00000    90.00000    90.00000  Step:        8500  Bead:      19 positions{angstrom}  cell{angstrom}
       E -1.05398e+01 -2.99395e+01 -3.53776e+01
       E  4.00368e+01  2.05399e+01 -3.43999e+01
       E  1.38885e+01 -2.34486e+01  5.33978e+01
3
# CELL(abcABC): 1322.94304  1322.94304  1322.94304    90.00000    90.00000    90.00000  Step:        8600  Bead:      19 positions{angstrom}  cell{angstrom}
       E  5.91183e+00 -2.07610e+01 -1.29538e+01
       E  2.24371e+01 -1.08692e+00 -2.67977e+01
       E  3.14073e+01 -2.23692e+01  4.24756e+01
3
# CELL(abcABC): 1322.94304  1322.94304  1322.94304    90.00000    90.00000    90.00000  Step:        8700  Bead:      19 positions{angstrom}  cell{angstrom}
       E -1.50951e+01 -1.62805e+00  1.70133e+01
       E  1.85637e+01 -2.00932e+00 -7.57101e+00
       E  5.13625e+01 -2.75458e+01  5.11987e+01
3
# CELL(abcABC): 1322.94304  1322.94304  1322.94304    90.00000    90.00000    90.00000  Step:        8800  Bead:      19 positions{angstrom}  cell{angstrom}
       E -3.70652e-01  2.56645e+01 -1.85920e+01
       E  1.71376e+00  4.27416e+00 -1.34547e+01
       E  5.35874e+01 -5.45380e+01  2.84928e+01
3
# CELL(abcABC): 1322.94304  1322.94304  1322.94304    90.00000    90.00000    90.00000  Step:        8900  Bead:      19 positions{angstrom}  cell{angstrom}
       E -5.23830e+01  4.87387e+01  3.22451e+01
       E -1.44140e+01  7.39185e+00  1.12029e+01
       E  5.91322e+01 -6.49016e+01  4.20961e+00
3
# CELL(abcABC): 1322.94304  1322.94304  1322.94304    90.00000    90.00000    90.00000  Step:        9000  Bead:      19 positions{angstrom}  cell{angstrom}
       E -5.26270e+01  3.72295e+01  4.82695e+01
       E -2.13937e+00  1.68204e+01  6.88194e+01
       E  4.11966e+01 -5.12877e+01  2.98363e+01
3
# CELL(abcABC): 1322.94304  1322.94304  1322.94304    90.00000    90.00000    90.00000  Step:        9100  Bead:      19 positions{angstrom}  cell{angstrom}
       E -4.27552e-01  2.78672e+01  8.73408e+00
       E  2.75920e+01 -3.43804e+01  8.29291e+01
       E  4.35785e+01  1.42345e+01  1.38667e+01
3
# CELL(abcABC): 1322.94304  1322.94304  1322.94304    90.00000    90.00000    90.00000  Step:        9200  Bead:      19 positions{angstrom}  cell{angstrom}
       E  9.54216e+00  2.68337e+01  1.66668e+01
       E -1.52656e+01 -8.56376e+00  3.90416e+01
       E  1.92786e+01 -5.12696e+01 -1.25272e+01
3
# CELL(abcABC): 1322.94304  1322.94304  1322.94304    90.00000    90.00000    90.00000  Step:        9300  Bead:      19 positions{angstrom}  cell{angstrom}
       E  6.82009e-01  1.11409e+01 -1.35833e+01
       E -3.87922e+01  2.30899e+01  3.04605e+01
       E -2.03629e+01 -5.12908e+01 -7.40875e+00
3
# CELL(abcABC): 1322.94304  1322.94304  1322.94304    90.00000    90.00000    90.00000  Step:        9400  Bead:      19 positions{angstrom}  cell{angstrom}
       E -2.89402e+01  4.60621e+01 -5.74862e+01
       E -4.49062e+01 -3.48850e+01  3.11340e+01
       E  1.13820e+01 -5.07378e+01  7.13884e+00
3
# CELL(abcABC): 1322.94304  1322.94304  1322.94304    90.00000    90.00000    90.00000  Step:        9500  Bead:      19 positions{angstrom}  cell{angstrom}
       E  2.22564e+01  4.69147e+01 -5.20491e+01
       E -4.29918e+00 -4.35893e+01  2.21263e+01
       E  1.04780e+01 -1.36376e+01  3.33377e+01
3
# CELL(abcABC): 1322.94304  1322.94304  1322.94304    90.00000    90.00000    90.00000  Step:        9600  Bead:      19 positions{angstrom}  cell{angstrom}
       E  7.44817e+00  1.67706e+01 -6.08914e+01
       E  2.92973e+01 -6.11824e+01 -7.48949e+00
       E -8.99057e+00 -2.07265e+01  1.78095e+01
3
# CELL(abcABC): 1322.94304  1322.94304  1322.94304    90.00000    90.00000    90.00000  Step:        9700  Bead:      19 positions{angstrom}  cell{angstrom}
       E  5.17863e+00 -2.34452e+01 -4.92441e+01
       E  1.09288e+01 -7.89134e+01  1.87283e+01
       E -6.33385e+00  1.35893e+01  1.46962e+01
3
# CELL(abcABC): 1322.94304  1322.94304  1322.94304    90.00000    90.00000    90.00000  Step:        9800  Bead:      19 positions{angstrom}  cell{angstrom}
       E -1.66677e+01 -5.77285e+01 -3.21956e+01
       E  1.56370e+00 -8.76281e+01  9.38194e+00
       E  3.95845e+00 -1.62295e+01  4.30853e+01
3