3
# CELL(abcABC): 1322.94304  1322.94304  1322.94304    90.00000    90.00000    90.00000  Step:           0  Bead:      12 positions{angstrom}  cell{angstrom}
       E  0.00000e+00  0.00000e+00  0.00000e+00
       E  0.00000e+00  0.00000e+00  0.00000e+00
       E  0.00000e+00  0.00000e+00  0.00000e+00
3
# CELL(abcABC): 1322.94304  1322.94304  1322.94304    90.00000    90.00000    90.00000  Step:         100  Bead:      12 positions{angstrom}  cell{angstrom}
       E  5.41394e+00 -3.19165e+00  7.39516e+00
       E  1.09774e+01  9.54040e+00 -1.20387e+01
       E -3.02897e+01  8.05107e+00 -2.79613e+01
3
# CELL(abcABC): 1322.94304  1322.94304  1322.94304    90.00000    90.00000    90.00000  Step:         200  Bead:      12 positions{angstrom}  cell{angstrom}
       E -1.83585e+00 -1.35025e+01 -1.64651e+01
       E  2.69230e+01 -2.22381e+01 -3.00227e+01
       E -4.36195e+01 -1.10412e+01  5.27311e+00
3
# CELL(abcABC): 1322.94304  1322.94304  1322.94304    90.00000    90.00000    90.00000  Step:         300  Bead:      12 positions{angstrom}  cell{angstrom}
       E -2.00230e+01  2.82591e+01 -2.23429e+01
       E  1.73184e+01  1.18493e+01 -2.67979e+01
       E -3.94713e+01  3.06834e+01  4.16696e+01
3
# CELL(abcABC): 1322.94304  1322.94304  1322.94304    90.00000    90.00000    90.00000  Step:         400  Bead:      12 positions{angstrom}  cell{angstrom}
       E -2.39066e+01  1.94209e+01  4.87754e+00
       E  2.61739e+01  6.44690e+01 -1.87339e+00
       E -1.67208e+01  5.84893e+00  3.54724e+01
3
# CELL(abcABC): 1322.94304  1322.94304  1322.94304    90.00000    90.00000    90.00000  Step:         500  Bead:      12 positions{angstrom}  cell{angstrom}
       E -2.01133e+01  3.41425e+01 -2.90628e+01
       E  3.14309e+01  4.27180e+01  1.11118e+01
       E  1.33706e+01  3.20273e+01  2.95079e+01
3
# CELL(abcABC): 1322.94304  1322.94304  1322.94304    90.00000    90.00000    90.00000  Step:         600  Bead:      12 positions{angstrom}  cell{angstrom}
       E -6.16873e-01 -2.47051e+00 -5.35664e+01
       E  1.15573e+01 -1.33090e+01  3.12927e+01
       E  2.07229e+01  1.34661e+01  3.34446e+01
3
# CELL(abcABC): 1322.94304  1322.94304  1322.94304    90.00000    90.00000    90.00000  Step:         700  Bead:      12 positions{angstrom}  cell{angstrom}
       E -8.02148e+00  4.46211e+01 -1.33409e+01
       E  8.65151e+00  2.35756e+01  5.15192e+01
       E  2.37089e+01  1.17549e+01  1.30672e+01
3
# CELL(abcABC): 1322.94304  1322.94304  1322.94304    90.00000    90.00000    90.00000  Step:         800  Bead:      12 positions{angstrom}  cell{angstrom}
       E -1.90163e+01  1.14588e+01  1.29325e+01
       E -1.53043e+01  2.87532e+01 -9.89537e+00
       E -1.92375e+01  2.33033e+01  1.57539e+01
3
# CELL(abcABC): 1322.94304  1322.94304  1322.94304    90.00000    90.00000    90.00000  Step:         900  Bead:      12 positions{angstrom}  cell{angstrom}
       E  2.60975e+01  1.35188e+01  1.59832e+01
       E  1.21433e+01  3.57670e+01 -2.42713e+01
       E -3.29327e+01 -4.37183e+00  4.48003e+01
3
# CELL(abcABC): 1322.94304  1322.94304  1322.94304    90.00000    90.00000    90.00000  Step:        1000  Bead:      12 positions{angstrom}  cell{angstrom}
       E  1.52184e+01  1.15578e+01 -3.95849e+01
       E  2.09824e+01 -2.22614e+01 -4.80683e+01
       E -3.06729e+01 -1.85890e+00  7.59357e+01
3
# CELL(abcABC): 1322.94304  1322.94304  1322.94304    90.00000    90.00000    90.00000  Step:        1100  Bead:      12 positions{angstrom}  cell{angstrom}
       E  1.89847e+01 -2.44588e+00 -6.80099e+01
       E  4.89082e+00 -3.92470e+01 -4.76795e+01
       E -1.02819e+01  2.96484e+01  4.43596e+01
3
# CELL(abcABC): 1322.94304  1322.94304  1322.94304    90.00000    90.00000    90.00000  Step:        1200  Bead:      12 positions{angstrom}  cell{angstrom}
       E -1.98648e+00  1.27600e+01 -8.42721e+01
       E  2.46632e+01 -1.06538e+01 -4.98719e+01
       E -5.74730e+00  3.19717e+01  4.14558e+01
3
# CELL(abcABC): 1322.94304  1322.94304  1322.94304    90.00000    90.00000    90.00000  Step:        1300  Bead:      12 positions{angstrom}  cell{angstrom}
       E -1.42536e+01  1.26332e+01 -7.57362e+01
       E  2.98662e+01 -1.85539e+01 -6.18500e+01
       E -1.29158e+01  3.86843e+01  3.33246e+01
3
# CELL(abcABC): 1322.94304  1322.94304  1322.94304    90.00000    90.00000    90.00000  Step:        1400  Bead:      12 positions{angstrom}  cell{angstrom}
       E  2.14626e+01  2.19496e+01 -8.88247e+01
       E -7.92415e+00 -2.25324e+01 -5.46856e+01
       E -3.14516e+01  3.79428e+01  3.74778e+00
3
# CELL(abcABC): 1322.94304  1322.94304  1322.94304    90.00000    90.00000    90.00000  Step:        1500  Bead:      12 positions{angstrom}  cell{angstrom}
       E -1.42371e+01  3.47268e+01 -8.96128e+01
       E -1.71056e+01 -2.00858e+01 -2.70949e+01
       E -4.67155e+01  1.49373e+01  6.64444e+00
3
# CELL(abcABC): 1322.94304  1322.94304  1322.94304    90.00000    90.00000    90.00000  Step:        1600  Bead:      12 positions{angstrom}  cell{angstrom}
       E  2.87039e+01  6.62062e+01 -5.52486e+01
       E -2.13948e+01  8.48856e+00 -1.37551e+01
       E -5.03268e+01  5.38247e+01  1.13106e+01
3
# CELL(abcABC): 1322.94304  1322.94304  1322.94304    90.00000    90.00000    90.00000  Step:        1700  Bead:      12 positions{angstrom}  cell{angstrom}
       E  2.83204e+01  1.79219e+01  4.82509e+00
       E  1.57680e+01  6.48157e+01  6.78685e+00
       E -4.53663e+01  5.03975e+01  1.89686e+01
3
# CELL(abcABC): 1322.94304  1322.94304  1322.94304    90.00000    90.00000    90.00000  Step:        1800  Bead:      12 positions{angstrom}  cell{angstrom}
       E  2.26831e+01  2.15275e+01  2.96436e+01
       E -1.88076e+01  4.11636e+01  1.33917e+01
       E -6.18187e+01  7.98744e+01  5.83611e+01
3
# CELL(abcABC): 1322.94304  1322.94304  1322.94304    90.00000    90.00000    90.00000  Step:        1900  Bead:      12 positions{angstrom}  cell{angstrom}
       E -2.58127e+01 -8.88787e+00  5.48133e+01
       E -6.17391e+01  5.79377e+01  4.23914e+01
       E -7.01266e+01  5.91367e+01  2.55973e+01
3
# CELL(abcABC): 1322.94304  1322.94304  1322.94304    90.00000    90.00000    90.00000  Step:        2000  Bead:      12 positions{angstrom}  cell{angstrom}
       E -2.91177e+01 -1.37462e+01  4.17158e+01
       E -4.87146e+01  4.02836e+01  1.68302e+01
       E -9.31216e+01  7.04075e+01  2.62560e+01
3
# CELL(abcABC): 1322.94304  1322.94304  1322.94304    90.00000    90.00000    90.00000  Step:        2100  Bead:      12 positions{angstrom}  cell{angstrom}
       E -2.34254e+01 -3.83843e+01  6.09872e+01
       E -2.85907e+01  1.79740e+01 -2.76733e+01
       E -8.17526e+01  5.24190e+01  3.12902e+01
3
# CELL(abcABC): 1322.94304  1322.94304  1322.94304    90.00000    90.00000    90.00000  Step:        2200  Bead:      12 positions{angstrom}  cell{angstrom}
       E -5.93855e+01 -1.75694e+01  6.47197e+01
       E  1.82344e+00 -2.02934e+01 -6.10895e+01
       E -3.29125e+01  7.46923e+01  7.55520e-01
3
# CELL(abcABC): 1322.94304  1322.94304  1322.94304    90.00000    90.00000    90.00000  Step:        2300  Bead:      12 positions{angstrom}  cell{angstrom}
       E -2.28241e+01 -2.36942e+01  5.96786e+01
       E -3.04824e+01 -1.23869e+01 -1.15619e+01
       E -2.44228e+01  1.35430e+01  3.08346e+01
3
# CELL(abcABC): 1322.94304  1322.94304  1322.94304    90.00000    90.00000    90.00000  Step:        2400  Bead:      12 positions{angstrom}  cell{angstrom}
       E -4.09239e+01 -3.25946e+01  3.18869e+01
       E  2.15642e+01 -3.12109e+01 -2.88867e+01
       E  9.58761e+00  3.36641e+00  3.64012e+01
3
# CELL(abcABC): 1322.94304  1322.94304  1322.94304    90.00000    90.00000    90.00000  Step:        2500  Bead:      12 positions{angstrom}  cell{angstrom}
       E -1.51067e+01  2.09097e+01  3.82603e+01
       E -1.98035e+01 -5.89942e+01 -3.43563e+01
       E  1.12916e+01 -3.36557e+01  1.79901e+01
3
# CELL(abcABC): 1322.94304  1322.94304  1322.94304    90.00000    90.00000    90.00000  Step:        2600  Bead:      12 positions{angstrom}  cell{angstrom}
       E -1.73649e+01  1.11524e+01  1.44401e+01
       E -3.82120e+01 -4.01756e+01 -3.62415e+01
       E  1.16285e+01 -2.85947e+01  3.95091e+01
3
# CELL(abcABC): 1322.94304  1322.94304  1322.94304    90.00000    90.00000    90.00000  Step:        2700  Bead:      12 positions{angstrom}  cell{angstrom}
       E  4.91613e+00  3.77598e+00  3.48340e+01
       E -6.05547e+01 -3.52853e+01 -4.08338e+01
       E -8.23152e+00 -1.96677e+01  4.16937e+01
3
# CELL(abcABC): 1322.94304  1322.94304  1322.94304    90.00000    90.00000    90.00000  Step:        2800  Bead:      12 positions{angstrom}  cell{angstrom}
       E -1.59418e+01 -2.18223e+01 -1.26822e+01
       E -6.75263e+01 -7.39672e+01 -8.18216e+00
       E  9.15656e+00 -5.85345e+00  6.06798e+01
3
# CELL(abcABC): 1322.94304  1322.94304  1322.94304    90.00000    90.00000    90.00000  Step:        2900  Bead:      12 positions{angstrom}  cell{angstrom}
       E -2.37403e+01 -2.16351e+01  5.16772e+00
       E -3.22586e+01 -5.49134e+01 -1.07668e+00
       E  3.07883e+01  1.18411e+01  2.67693e+01
3
# CELL(abcABC): 1322.94304  1322.94304  1322.94304    90.00000    90.00000    90.00000  Step:        3000  Bead:      12 positions{angstrom}  cell{angstrom}
       E -3.30152e+01 -2.94513e+01 -2.55138e+00
       E -4.76799e+01 -8.08773e+01  1.62621e+01
       E  2.62074e+00  2.61902e+01  1.66399e+01
3
# CELL(abcABC): 1322.94304  1322.94304  1322.94304    90.00000    90.00000    90.00000  Step:        3100  Bead:      12 positions{angstrom}  cell{angstrom}
       E  5.09914e+00 -8.30261e+00  1.38702e+01
       E -7.45492e+01 -5.03102e+01  4.90462e+01
       E  5.76476e+00  3.25469e+01  3.32719e+01
3
# CELL(abcABC): 1322.94304  1322.94304  1322.94304    90.00000    90.00000    90.00000  Step:        3200  Bead:      12 positions{angstrom}  cell{angstrom}
       E  1.00948e+01 -1.91657e+01  1.45275e+01
       E -9.73454e+01 -3.55364e+01  5.70086e+01
       E  4.42056e+00  6.61829e+01  5.25267e+01
3
# CELL(abcABC): 1322.94304  1322.94304  1322.94304    90.00000    90.00000    90.00000  Step:        3300  Bead:      12 positions{angstrom}  cell{angstrom}
       E  1.01472e+01 -1.80103e+01 -1.69173e+01
       E -9.41650e+01 -4.22508e+01  7.59604e+01
       E -4.02338e+01  4.63608e+01  3.76947e+01
3
# CELL(abcABC): 1322.94304  1322.94304  1322.94304    90.00000    90.00000    90.00000  Step:        3400  Bead:      12 positions{angstrom}  cell{angstrom}
       E  1.34643e+01  2.27860e+01  1.24268e+01
       E -6.56968e+01 -3.46094e+01  7.51822e+01
       E -6.99454e+01  3.54911e+01  5.13304e+01
3
# CELL(abcABC): 1322.94304  1322.94304  1322.94304    90.00000    90.00000    90.00000  Step:        3500  Bead:      12 positions{angstrom}  cell{angstrom}
       E -5.20518e+00  2.57848e+01  3.35749e+01
       E -2.53238e+01 -4.60592e+00  3.20319e+01
       E -4.18598e+01  5.99442e+01  6.09301e+01
3
# CELL(abcABC): 1322.94304  1322.94304  1322.94304    90.00000    90.00000    90.00000  Step:        3600  Bead:      12 positions{angstrom}  cell{angstrom}
       E -1.18173e+01  2.95818e+01  7.04878e+00
       E -3.75665e+01 -3.74173e+01  2.43253e-01
       E -1.10835e+01  4.87835e+01  1.54413e+01
3
# CELL(abcABC): 1322.94304  1322.94304  1322.94304    90.00000    90.00000    90.00000  Step:        3700  Bead:      12 positions{angstrom}  cell{angstrom}
       E -4.05879e+01  1.50110e+01 -2.63789e+00
       E -3.94309e+01 -2.97659e+01  2.86536e+01
       E -4.51438e+01  1.18346e+01 -1.06402e+01
3
# CELL(abcABC): 1322.94304  1322.94304  1322.94304    90.00000    90.00000    90.00000  Step:        3800  Bead:      12 positions{angstrom}  cell{angstrom}
       E -6.98619e+01  8.34853e+00 -3.13708e+01
       E -2.41890e+01 -3.50539e+01 -1.50908e+01
       E -3.82373e+01 -5.92412e+00 -2.03699e+01
3
# CELL(abcABC): 1322.94304  1322.94304  1322.94304    90.00000    90.00000    90.00000  Step:        3900  Bead:      12 positions{angstrom}  cell{angstrom}
       E -1.14029e+02  3.04679e-01 -1.30236e+01
       E  9.13590e+00 -1.02184e+01 -1.39273e+01
       E -3.81825e+01  2.47723e+01 -2.65863e+01
3
# CELL(abcABC): 1322.94304  1322.94304  1322.94304    90.00000    90.00000    90.00000  Step:        4000  Bead:      12 positions{angstrom}  cell{angstrom}
       E -9.43768e+01  5.39021e+01 -7.01649e+01
       E -3.96653e+01  6.85522e+00  1.98274e+01
       E -4.95495e+01  2.63065e+01  3.13606e+00
3
# CELL(abcABC): 1322.94304  1322.94304  1322.94304    90.00000    90.00000    90.00000  Step:        4100  Bead:      12 positions{angstrom}  cell{angstrom}
       E -6.42292e+01  2.50630e+01 -3.64514e+01
       E -3.92979e+01  3.07177e+01  5.39291e+01
       E -3.46928e+01  8.06149e+00  5.64697e+01
3
# CELL(abcABC): 1322.94304  1322.94304  1322.94304    90.00000    90.00000    90.00000  Step:        4200  Bead:      12 positions{angstrom}  cell{angstrom}
       E -4.04392e+01  5.00029e+01 -5.44061e+01
       E -4.42610e+01  3.92530e+01  4.27926e+01
       E -1.70798e+01  2.56584e+01  4.67899e+01
3
# CELL(abcABC): 1322.94304  1322.94304  1322.94304    90.00000    90.00000    90.00000  Step:        4300  Bead:      12 positions{angstrom}  cell{angstrom}
       E -4.76534e+01  3.68343e+01 -8.70249e+01
       E -3.64266e+01  3.73792e+01  6.49362e+01
       E -3.52516e+01  4.90202e+01  4.48221e+01
3
# CELL(abcABC): 1322.94304  1322.94304  1322.94304    90.00000    90.00000    90.00000  Step:        4400  Bead:      12 positions{angstrom}  cell{angstrom}
       E -6.37043e+01 -1.13624e+01 -7.46302e+01
       E -5.48912e+01  6.70076e+01  3.24644e+01
       E -6.18885e+01  9.37420e+00 -1.04493e+01
3
# CELL(abcABC): 1322.94304  1322.94304  1322.94304    90.00000    90.00000    90.00000  Step:        4500  Bead:      12 positions{angstrom}  cell{angstrom}
       E -4.36400e+01  5.92085e+00 -7.58883e+01
       E -8.55574e+01  6.81887e+01  9.77716e+00
       E -2.47672e+01 -2.31805e+01  2.56359e+01
3
# CELL(abcABC): 1322.94304  1322.94304  1322.94304    90.00000    90.00000    90.00000  Step:        4600  Bead:      12 positions{angstrom}  cell{angstrom}
       E  1.36828e+01  1.23434e+01 -7.32931e+01
       E -6.86695e+01  2.90335e+01 -7.22183e+00
       E  2.34225e+01 -4.03827e+01  3.91571e+01
3
# CELL(abcABC): 1322.94304  1322.94304  1322.94304    90.00000    90.00000    90.00000  Step:        4700  Bead:      12 positions{angstrom}  cell{angstrom}
       E  4.27309e+01  3.64071e+01 -5.96927e+01
       E -8.25589e+01  6.06308e+01 -3.86033e+01
       E  6.10594e+01 -6.71155e+00  8.05791e-01
3
# CELL(abcABC): 1322.94304  1322.94304  1322.94304    90.00000    90.00000    90.00000  Step:        4800  Bead:      12 positions{angstrom}  cell{angstrom}
       E  5.17361e+00  5.65123e+01 -1.86938e+01
       E -6.54634e+01  4.09182e+01 -3.54941e+01
       E  5.57378e+01  1.31045e+01 -1.36490e+01
3
# CELL(abcABC): 1322.94304  1322.94304  1322.94304    90.00000    90.00000    90.00000  Step:        4900  Bead:      12 positions{angstrom}  cell{angstrom}
       E  2.69315e+01  1.32166e+01  2.75030e+00
       E -3.65046e+01 -2.29848e+01 -4.11482e+01
       E  2.12582e+01 -1.80522e+00 -1.52616e+01
3
# CELL(abcABC): 1322.94304  1322.94304  1322.94304    90.00000    90.00000    90.00000  Step:        5000  Bead:      12 positions{angstrom}  cell{angstrom}
       E  1.10235e+01  6.51198e+00 -5.08743e-01
       E -4.02105e+01  5.98316e+00 -1.70559e+01
       E  5.67938e+00 -1.72617e+01 -2.92748e+01
3
# CELL(abcABC): 1322.94304  1322.94304  1322.94304    90.00000    90.00000    90.00000  Step:        5100  Bead:      12 positions{angstrom}  cell{angstrom}
       E -1.41723e+00  4.02031e-01 -4.60490e+00
       E -1.18071e+01  5.06514e-01 -7.94778e+00
       E -1.71136e+01 -1.28332e+01  3.95187e-01
3
# CELL(abcABC): 1322.94304  1322.94304  1322.94304    90.00000    90.00000    90.00000  Step:        5200  Bead:      12 positions{angstrom}  cell{angstrom}
       E  1.25046e+01  1.97879e+01  4.63174e+01
       E -1.23828e+01  3.18170e+01 -6.67722e-01
       E  4.15274e+00 -5.38370e+00  6.28420e+00
3
# CELL(abcABC): 1322.94304  1322.94304  1322.94304    90.00000    90.00000    90.00000  Step:        5300  Bead:      12 positions{angstrom}  cell{angstrom}
       E  1.14725e+01  4.42853e+01  3.78003e+01
       E -2.91844e+01  2.74141e+01 -3.23132e+01
       E  9.56315e+00  1.73012e+01  2.56509e+01
3
# CELL(abcABC): 1322.94304  1322.94304  1322.94304    90.00000    90.00000    90.00000  Step:        5400  Bead:      12 positions{angstrom}  cell{angstrom}
       E  1.47664e+01  1.99876e+01  5.40948e+01
       E -2.06663e+01  2.72338e+01 -2.76760e+01
       E -2.55702e+01  3.52075e+01  3.22335e+01
3
# CELL(abcABC): 1322.94304  1322.94304  1322.94304    90.00000    90.00000    90.00000  Step:        5500  Bead:      12 positions{angstrom}  cell{angstrom}
       E  1.48681e+01  2.86144e+01  5.11908e+01
       E -3.97618e+01 -7.79871e+00 -2.17410e+01
       E -2.25644e+01 -4.32932e+00  4.57401e+01
3
# CELL(abcABC): 1322.94304  1322.94304  1322.94304    90.00000    90.00000    90.00000  Step:        5600  Bead:      12 positions{angstrom}  cell{angstrom}
       E -3.09318e+01  1.19324e+01  2.64975e+01
       E -4.43658e+01  8.15949e+00 -3.72861e+01
       E -4.97320e+01 -3.82502e+00 -7.55448e+00
3
# CELL(abcABC): 1322.94304  1322.94304  1322.94304    90.00000    90.00000    90.00000  Step:        5700  Bead:      12 positions{angstrom}  cell{angstrom}
       E  6.21978e-01  1.52215e+00  1.92715e+01
       E -4.03840e+01  3.09961e+01 -1.00216e+01
       E -1.02208e+01  2.17125e+00  2.13351e+01
3
# CELL(abcABC): 1322.94304  1322.94304  1322.94304    90.00000    90.00000    90.00000  Step:        5800  Bead:      12 positions{angstrom}  cell{angstrom}
       E  3.82292e+00  7.95182e+00 -9.34908e+00
       E -6.43070e+01  5.05163e+01  4.27181e+00
       E -2.57436e+00  2.67808e+01 -3.05666e+00
3
# CELL(abcABC): 1322.94304  1322.94304  1322.94304    90.00000    90.00000    90.00000  Step:        5900  Bead:      12 positions{angstrom}  cell{angstrom}
       E  3.86366e+01  1.64250e+00 -6.75227e+00
       E -1.79070e+01 -4.07482e+00 -1.35323e+01
       E  1.01135e+01 -1.32324e+01  1.70283e+01
3
# CELL(abcABC): 1322.94304  1322.94304  1322.94304    90.00000    90.00000    90.00000  Step:        6000  Bead:      12 positions{angstrom}  cell{angstrom}
       E  1.38384e+01  2.42671e-01 -4.71563e+00
       E  1.73590e+01 -7.55083e+00  1.17781e+01
       E -3.27702e+00  6.27627e+00 -5.94272e+00
3
# CELL(abcABC): 1322.94304  1322.94304  1322.94304    90.00000    90.00000    90.00000  Step:        6100  Bead:      12 positions{angstrom}  cell{angstrom}
       E  6.41204e+00 -5.77474e+01 -4.59196e+01
       E  7.64742e+00  1.82551e+01  2.48192e+01
       E -3.63439e+01  4.65402e-02  4.09666e-01
3
# CELL(abcABC): 1322.94304  1322.94304  1322.94304    90.00000    90.00000    90.00000  Step:        6200  Bead:      12 positions{angstrom}  cell{angstrom}
       E  1.54470e+01 -1.45319e+01 -6.47741e+01
       E  7.36101e+01  5.07065e+01 -7.00735e+00
       E  1.09929e+01  1.42363e+01  6.85887e+00
3
# CELL(abcABC): 1322.94304  1322.94304  1322.94304    90.00000    90.00000    90.00000  Step:        6300  Bead:      12 positions{angstrom}  cell{angstrom}
       E  2.53678e+01 -3.99307e+01 -8.72704e+01
       E  9.91543e+01 -4.23005e+00 -4.48111e+01
       E -6.67574e+00 -9.79900e+00 -1.11648e+01
3
# CELL(abcABC): 1322.94304  1322.94304  1322.94304    90.00000    90.00000    90.00000  Step:        6400  Bead:      12 positions{angstrom}  cell{angstrom}
       E  3.30949e+01 -7.91064e+01 -9.11448e+01
       E  8.92710e+01  2.51849e-01 -1.74332e+01
       E -9.19525e-01  1.07388e+00 -5.83168e-01
3
# CELL(abcABC): 1322.94304  1322.94304  1322.94304    90.00000    90.00000    90.00000  Step:        6500  Bead:      12 positions{angstrom}  cell{angstrom}
       E -1.04219e+00 -8.23392e+01 -1.17163e+02
       E  2.90948e+01 -2.81919e+01 -3.66989e+00
       E  5.79081e+00 -2.68000e+01  1.43602e+01
3
# CELL(abcABC): 1322.94304  1322.94304  1322.94304    90.00000    90.00000    90.00000  Step:        6600  Bead:      12 positions{angstrom}  cell{angstrom}
       E -2.49684e+01 -6.13873e+01 -1.10926e+02
       E  3.45422e+01 -3.56038e+01 -3.79730e+00
       E  8.06455e+00 -3.23146e+01  2.70532e+01
3
# CELL(abcABC): 1322.94304  1322.94304  1322.94304    90.00000    90.00000    90.00000  Step:        6700  Bead:      12 positions{angstrom}  cell{angstrom}
       E -1.62057e+01 -5.81187e+01 -8.93258e+01
       E  2.04723e+01 -5.22656e+00 -6.00060e+00
       E -8.76186e+00  3.49017e-01 -2.98981e-01
3
# CELL(abcABC): 1322.94304  1322.94304  1322.94304    90.00000    90.00000    90.00000  Step:        6800  Bead:      12 positions{angstrom}  cell{angstrom}
       E -8.68308e+00 -8.09342e+01 -6.45540e+01
       E  6.15212e+01 -2.40764e+01 -4.77634e-01
       E  1.38741e+01  4.09743e+01 -2.04991e+01
3
# CELL(abcABC): 1322.94304  1322.94304  1322.94304    90.00000    90.00000    90.00000  Step:        6900  Bead:      12 positions{angstrom}  cell{angstrom}
       E  1.73713e+01 -4.70115e+01 -5.20945e+01
       E  1.77098e+01 -1.24038e+01 -3.13308e+01
       E -9.82247e+00  3.43207e+01 -8.64639e+00
3
# CELL(abcABC): 1322.94304  1322.94304  1322.94304    90.00000    90.00000    90.00000  Step:        7000  Bead:      12 positions{angstrom}  cell{angstrom}
       E  6.72121e+00 -6.10081e+01 -3.63382e+01
       E -6.07417e+00 -1.36755e+01  3.36842e+01
       E -4.34372e+00  2.95968e+01  4.08012e+01
3
# CELL(abcABC): 1322.94304  1322.94304  1322.94304    90.00000    90.00000    90.00000  Step:        7100  Bead:      12 positions{angstrom}  cell{angstrom}
       E  6.87474e+00 -5.80700e+01 -2.77966e+01
       E -2.24675e+01 -1.03337e+01  2.86650e+01
       E  1.50818e+01  6.77290e+01  3.56637e+01
3
# CELL(abcABC): 1322.94304  1322.94304  1322.94304    90.00000    90.00000    90.00000  Step:        7200  Bead:      12 positions{angstrom}  cell{angstrom}
       E  3.57068e+01 -4.01151e+01 -1.52073e+01
       E -4.97084e+01  8.22892e+00  2.50122e+01
       E  4.90492e+01  3.53573e+01  8.17959e+00
3
# CELL(abcABC): 1322.94304  1322.94304  1322.94304    90.00000    90.00000    90.00000  Step:        7300  Bead:      12 positions{angstrom}  cell{angstrom}
       E  4.66644e+00 -3.50404e+01 -4.63348e+01
       E -2.87739e+01  5.80274e+01  3.05159e+01
       E  4.16379e+01  1.88035e+01 -1.37815e+01
3
# CELL(abcABC): 1322.94304  1322.94304  1322.94304    90.00000    90.00000    90.00000  Step:        7400  Bead:      12 positions{angstrom}  cell{angstrom}
       E  9.87912e+00 -3.99703e+01 -6.87107e+01
       E -4.55071e+01  4.04199e+01  1.40516e+00
       E  5.26271e+01  4.26505e+01 -4.57878e+01
3
# CELL(abcABC): 1322.94304  1322.94304  1322.94304    90.00000    90.00000    90.00000  Step:        7500  Bead:      12 positions{angstrom}  cell{angstrom}
       E -1.74681e+01 -6.63903e+01 -3.42713e+01
       E -2.61334e+01  6.62574e+00 -1.45025e+00
       E  5.46447e+01  3.50131e+01 -6.85267e+00
3
# CELL(abcABC): 1322.94304  1322.94304  1322.94304    90.00000    90.00000    90.00000  Step:        7600  Bead:      12 positions{angstrom}  cell{angstrom}
       E  1.09357e+01 -5.87451e+01 -2.91320e+01
       E  4.77305e+00 -4.09838e+01 -2.46544e+01
       E  3.45593e+01  3.84241e+01  2.40793e+00
3
# CELL(abcABC): 1322.94304  1322.94304  1322.94304    90.00000    90.00000    90.00000  Step:        7700  Bead:      12 positions{angstrom}  cell{angstrom}
       E  8.49534e+00 -7.43551e+01 -1.61525e+01
       E -6.35856e+00 -5.69646e+01 -6.93477e+01
       E  2.22517e+01  3.68492e+01 -4.08357e+01
3
# CELL(abcABC): 1322.94304  1322.94304  1322.94304    90.00000    90.00000    90.00000  Step:        7800  Bead:      12 positions{angstrom}  cell{angstrom}
       E  1.59577e+01 -5.79506e+01 -4.00470e+01
       E -6.09860e+00 -6.23198e+01 -3.72194e+01
       E  2.82403e+01  3.80328e+00 -4.42921e+01
3
# CELL(abcABC): 1322.94304  1322.94304  1322.94304    90.00000    90.00000    90.00000  Step:        7900  Bead:      12 positions{angstrom}  cell{angstrom}
       E  3.90319e+01 -1.60224e+01 -4.03611e+01
       E -4.97364e+00 -3.92306e+00 -3.18971e+01
       E -2.73909e+00  3.33300e+01 -5.23923e+01
3
# CELL(abcABC): 1322.94304  1322.94304  1322.94304    90.00000    90.00000    90.00000  Step:        8000  Bead:      12 positions{angstrom}  cell{angstrom}
       E  1.23642e+01 -1.44247e+01 -3.52492e+01
       E  5.28410e+00  9.64057e+00 -3.17031e+01
       E  1.21390e+01  2.88926e+01 -4.41335e+01
3
# CELL(abcABC): 1322.94304  1322.94304  1322.94304    90.00000    90.00000    90.00000  Step:        8100  Bead:      12 positions{angstrom}  cell{angstrom}
       E  3.07474e+01  9.03906e+00 -5.58793e+01
       E  2.21945e+00 -9.85445e-01 -2.15757e+01
       E  4.00539e+01  1.81806e+01 -1.36839e+01
3
# CELL(abcABC): 1322.94304  1322.94304  1322.94304    90.00000    90.00000    90.00000  Step:        8200  Bead:      12 positions{angstrom}  cell{angstrom}
       E  4.55865e+01  4.95052e+01 -5.78678e+01
       E -4.55909e+01 -6.23448e+00 -2.35279e+01
       E  2.53934e+00 -8.84102e+00  1.57839e+01
3
# CELL(abcABC): 1322.94304  1322.94304  1322.94304    90.00000    90.00000    90.00000  Step:        8300  Bead:      12 positions{angstrom}  cell{angstrom}
       E  3.83395e+01  3.87288e+01 -4.59776e+01
       E -2.49144e+01  2.26476e+01  2.61579e+01
       E  1.11924e+01 -5.98955e+01  5.11582e+01
3
# CELL(abcABC): 1322.94304  1322.94304  1322.94304    90.00000    90.00000    90.00000  Step:        8400  Bead:      12 positions{angstrom}  cell{angstrom}
       E  1.57043e+01  7.64062e+00 -3.09760e+01
       E  1.10425e+01  4.02783e+01 -1.51795e+01
       E  2.65557e+01 -4.10107e+01  4.23119e+01
3
# CELL(abcABC): 1322.94304  1322.94304  1322.94304    90.00000    90.00000    90.00000  Step:        8500  Bead:      12 positions{angstrom}  cell{angstrom}
       E -4.32595e+01 -1.78684e+01 -1.58985e+01
       E  3.63032e+01  3.49591e+01 -1.26086e+01
       E  1.67965e+01 -3.28640e+01  3.18497e+01
3
# CELL(abcABC): 1322.94304  1322.94304  1322.94304    90.00000    90.00000    90.00000  Step:        8600  Bead:      12 positions{angstrom}  cell{angstrom}
       E -2.83831e+01 -8.78646e+00  2.53754e+00
       E  6.08180e+00  2.70552e+01 -5.51512e+01
       E  1.06537e+01 -1.47418e+01  3.13464e+01
3
# CELL(abcABC): 1322.94304  1322.94304  1322.94304    90.00000    90.00000    90.00000  Step:        8700  Bead:      12 positions{angstrom}  cell{angstrom}
       E -4.29569e+01  1.06550e+01 -2.55670e+01
       E -1.38174e+01  1.95332e+01 -2.81296e+01
       E  1.42209e+01 -3.47480e+01  7.38508e+01
3
# CELL(abcABC): 1322.94304  1322.94304  1322.94304    90.00000    90.00000    90.00000  Step:        8800  Bead:      12 positions{angstrom}  cell{angstrom}
       E -3.94194e+01  2.14999e+01  2.21396e+01
       E  1.23180e+01 -6.80275e+00  7.72018e+00
       E  1.18757e+01 -8.43934e+01  6.70859e+01
3
# CELL(abcABC): 1322.94304  1322.94304  1322.94304    90.00000    90.00000    90.00000  Step:        8900  Bead:      12 positions{angstrom}  cell{angstrom}
       E -3.43298e+01  2.29656e+01  2.51834e+01
       E  5.63954e+00 -2.36970e+01  2.93663e+01
       E  2.41462e+00 -4.93894e+01  4.93693e+01
3
# CELL(abcABC): 1322.94304  1322.94304  1322.94304    90.00000    90.00000    90.00000  Step:        9000  Bead:      12 positions{angstrom}  cell{angstrom}
       E -8.53801e+00  2.57468e+01  1.77543e+01
       E -1.83806e+01 -2.15969e+01  5.24835e+01
       E  3.80947e+01 -2.88172e+01  6.32210e+00
3
# CELL(abcABC): 1322.94304  1322.94304  1322.94304    90.00000    90.00000    90.00000  Step:        9100  Bead:      12 positions{angstrom}  cell{angstrom}
       E  4.48081e+00  2.57939e+01  1.29596e+01
       E -3.70504e+01  1.32028e+01  6.91129e+01
       E  2.22209e+01 -1.52473e+01  2.92569e+01
3
# CELL(abcABC): 1322.94304  1322.94304  1322.94304    90.00000    90.00000    90.00000  Step:        9200  Bead:      12 positions{angstrom}  cell{angstrom}
       E  5.92400e+00  2.63541e+01  8.13399e+00
       E -5.00494e+01 -1.57938e+01  3.73957e+01
       E  2.27399e+01 -6.78640e+01 -2.66398e+00
3
# CELL(abcABC): 1322.94304  1322.94304  1322.94304    90.00000    90.00000    90.00000  Step:        9300  Bead:      12 positions{angstrom}  cell{angstrom}
       E  2.09014e+00  2.93020e+01 -5.65592e+00
       E -2.85652e+01  6.86290e+00  9.22381e+00
       E  3.39790e+01 -6.32544e+01  1.96162e+01
3
# CELL(abcABC): 1322.94304  1322.94304  1322.94304    90.00000    90.00000    90.00000  Step:        9400  Bead:      12 positions{angstrom}  cell{angstrom}
       E  2.85795e+01  7.91784e+01 -6.31353e+01
       E -3.23801e+01 -5.29133e+01  2.42487e+01
       E  5.55058e+01 -6.39143e+01 -2.32954e+01
3
# CELL(abcABC): 1322.94304  1322.94304  1322.94304    90.00000    90.00000    90.00000  Step:        9500  Bead:      12 positions{angstrom}  cell{angstrom}
       E  8.26069e+00  5.87320e+01 -5.44253e+01
       E -2.85103e+01 -4.94807e+01  3.36726e+01
       E  1.97404e+01 -2.04212e+01  4.25108e+00
3
# CELL(abcABC): 1322.94304  1322.94304  1322.94304    90.00000    90.00000    90.00000  Step:        9600  Bead:      12 positions{angstrom}  cell{angstrom}
       E  1.25341e+01  4.79909e+01 -1.74252e+01
       E  3.24202e+01 -5.15197e+01  3.31650e+01
       E  1.28525e+01 -1.57509e+01  8.91871e+00
3
# CELL(abcABC): 1322.94304  1322.94304  1322.94304    90.00000    90.00000    90.00000  Step:        9700  Bead:      12 positions{angstrom}  cell{angstrom}
       E  2.19177e+01 -2.78401e+01 -2.94847e+01
       E  7.05426e+01 -5.58735e+01  2.00307e+01
       E  2.64112e+01 -4.69510e+00  6.37369e+00
3
# CELL(abcABC): 1322.94304  1322.94304  1322.94304    90.00000    90.00000    90.00000  Step:        9800  Bead:      12 positions{angstrom}  cell{angstrom}
       E  7.10500e+00 -6.09081e+01 -6.36047e+01
       E  4.13364e+01 -8.80744e+01 -7.30385e-01
       E  2.65932e+01 -6.39225e+00  1.96433e+01
3