3
# CELL(abcABC): 1322.94304  1322.94304  1322.94304    90.00000    90.00000    90.00000  Step:           0  Bead:      23 positions{angstrom}  cell{angstrom}
       E  0.00000e+00  0.00000e+00  0.00000e+00
       E  0.00000e+00  0.00000e+00  0.00000e+00
       E  0.00000e+00  0.00000e+00  0.00000e+00
3
# CELL(abcABC): 1322.94304  1322.94304  1322.94304    90.00000    90.00000    90.00000  Step:         100  Bead:      23 positions{angstrom}  cell{angstrom}
       E  4.14225e+01 -1.36236e+01 -1.70689e+01
       E  4.04723e+00 -2.88081e+01 -1.32726e+01
       E -1.26955e+01  8.40047e+00  7.82737e+00
3
# CELL(abcABC): 1322.94304  1322.94304  1322.94304    90.00000    90.00000    90.00000  Step:         200  Bead:      23 positions{angstrom}  cell{angstrom}
       E  1.15052e+01 -6.83778e+00  1.77890e+01
       E  1.03915e+01 -6.62800e+01 -5.20972e+00
       E -1.30375e+01  2.30796e+01 -4.68553e-01
3
# CELL(abcABC): 1322.94304  1322.94304  1322.94304    90.00000    90.00000    90.00000  Step:         300  Bead:      23 positions{angstrom}  cell{angstrom}
       E -3.22196e+00  8.33011e+00  3.53729e+01
       E  1.31132e+01 -2.80715e+01  1.57494e+01
       E -8.93514e+00  1.09250e+00 -9.69308e+00
3
# CELL(abcABC): 1322.94304  1322.94304  1322.94304    90.00000    90.00000    90.00000  Step:         400  Bead:      23 positions{angstrom}  cell{angstrom}
       E  4.77575e+00  2.32488e+01 -6.18409e+00
       E  2.23386e+01 -4.12466e+01 -6.05838e+00
       E  4.90749e+00  6.36542e-01 -1.32330e+01
3
# CELL(abcABC): 1322.94304  1322.94304  1322.94304    90.00000    90.00000    90.00000  Step:         500  Bead:      23 positions{angstrom}  cell{angstrom}
       E -1.47821e+01 -3.59545e+00 -3.65459e+01
       E  2.45873e+01  9.95405e+00  1.13848e+01
       E -7.00733e+00 -1.22299e+01  8.33481e+00
3
# CELL(abcABC): 1322.94304  1322.94304  1322.94304    90.00000    90.00000    90.00000  Step:         600  Bead:      23 positions{angstrom}  cell{angstrom}
       E  2.04257e+01  3.16735e+00 -9.17883e+00
       E  3.48348e+01  1.52612e+01  5.55554e+00
       E  2.15889e+01 -8.97176e-01 -2.27947e+01
3
# CELL(abcABC): 1322.94304  1322.94304  1322.94304    90.00000    90.00000    90.00000  Step:         700  Bead:      23 positions{angstrom}  cell{angstrom}
       E  3.33831e+01 -1.46259e+00  5.39356e-01
       E  2.80359e+01 -2.43534e+01  2.11091e+01
       E -1.00784e+01 -6.14589e+00  3.54975e+01
3
# CELL(abcABC): 1322.94304  1322.94304  1322.94304    90.00000    90.00000    90.00000  Step:         800  Bead:      23 positions{angstrom}  cell{angstrom}
       E  1.66902e+01 -9.05944e+00  1.10379e+01
       E  4.89199e+01  1.89842e+00  1.39362e+01
       E -3.29886e+01 -3.29200e+00  4.08257e+01
3
# CELL(abcABC): 1322.94304  1322.94304  1322.94304    90.00000    90.00000    90.00000  Step:         900  Bead:      23 positions{angstrom}  cell{angstrom}
       E  7.89769e+00  3.93029e+01 -1.03242e+01
       E  1.40177e+01 -1.14806e+01  6.40975e+00
       E -5.29616e+01  4.37641e+00  6.26706e+01
3
# CELL(abcABC): 1322.94304  1322.94304  1322.94304    90.00000    90.00000    90.00000  Step:        1000  Bead:      23 positions{angstrom}  cell{angstrom}
       E  2.06785e+01  2.62935e+01  4.29801e+00
       E -1.49186e-01  7.35818e+00 -3.70208e+01
       E -5.52222e+01  1.33480e+01  7.12778e+01
3
# CELL(abcABC): 1322.94304  1322.94304  1322.94304    90.00000    90.00000    90.00000  Step:        1100  Bead:      23 positions{angstrom}  cell{angstrom}
       E -1.25068e+01  2.54019e+01 -5.52979e+01
       E -8.02561e+00 -1.11101e+01 -2.65013e+01
       E  1.07322e+01  3.81555e+01  5.02373e+01
3
# CELL(abcABC): 1322.94304  1322.94304  1322.94304    90.00000    90.00000    90.00000  Step:        1200  Bead:      23 positions{angstrom}  cell{angstrom}
       E  4.95936e+00 -4.36504e+00 -1.78111e+01
       E  2.28233e+01  8.57713e+00 -4.75112e+01
       E  5.87526e+00  6.06560e+01 -5.18514e-01
3
# CELL(abcABC): 1322.94304  1322.94304  1322.94304    90.00000    90.00000    90.00000  Step:        1300  Bead:      23 positions{angstrom}  cell{angstrom}
       E  9.44177e+00  4.26032e+01 -4.75777e+01
       E  6.15002e+00 -2.31836e+01 -8.79208e+01
       E -1.63654e+01  1.84410e+01  7.73310e+00
3
# CELL(abcABC): 1322.94304  1322.94304  1322.94304    90.00000    90.00000    90.00000  Step:        1400  Bead:      23 positions{angstrom}  cell{angstrom}
       E -2.09988e+01  5.52546e+01 -6.36241e+01
       E  2.74835e+01 -4.03101e+00 -5.22683e+01
       E -2.34489e+01 -4.08458e+00  2.12012e+00
3
# CELL(abcABC): 1322.94304  1322.94304  1322.94304    90.00000    90.00000    90.00000  Step:        1500  Bead:      23 positions{angstrom}  cell{angstrom}
       E  1.10693e+01  5.79983e+01 -6.45319e+01
       E -3.82573e+01  1.31302e+01 -4.34532e+01
       E  1.93253e+00  1.31220e+01  3.40590e+01
3
# CELL(abcABC): 1322.94304  1322.94304  1322.94304    90.00000    90.00000    90.00000  Step:        1600  Bead:      23 positions{angstrom}  cell{angstrom}
       E -2.76731e+01  3.32388e+01 -3.34076e+01
       E -3.43090e+01  2.81661e+01 -1.70623e+01
       E  3.47898e+01  4.57349e+01  1.01084e+01
3
# CELL(abcABC): 1322.94304  1322.94304  1322.94304    90.00000    90.00000    90.00000  Step:        1700  Bead:      23 positions{angstrom}  cell{angstrom}
       E -1.56452e+01  4.36465e+01 -8.30407e+00
       E -1.20359e+01  2.31056e+01  2.03796e+01
       E  2.62764e+01  6.24746e+01 -1.14599e+01
3
# CELL(abcABC): 1322.94304  1322.94304  1322.94304    90.00000    90.00000    90.00000  Step:        1800  Bead:      23 positions{angstrom}  cell{angstrom}
       E -2.49994e+01  3.72152e+01  3.78232e+01
       E -6.95619e+01  2.54853e+01  2.90328e+01
       E -5.67193e+01  4.81774e+01  8.38078e+00
3
# CELL(abcABC): 1322.94304  1322.94304  1322.94304    90.00000    90.00000    90.00000  Step:        1900  Bead:      23 positions{angstrom}  cell{angstrom}
       E  1.00217e+01  3.16348e+00  1.80312e+01
       E -5.05746e+01  5.48828e+01  3.29368e+00
       E -6.74236e+01  4.67411e+01 -1.45381e+01
3
# CELL(abcABC): 1322.94304  1322.94304  1322.94304    90.00000    90.00000    90.00000  Step:        2000  Bead:      23 positions{angstrom}  cell{angstrom}
       E -3.59647e+01 -4.25079e+01  5.17752e+01
       E -3.28854e+01  2.18073e+00  1.61332e+01
       E -6.30494e+01  7.98143e+01 -9.99247e+00
3
# CELL(abcABC): 1322.94304  1322.94304  1322.94304    90.00000    90.00000    90.00000  Step:        2100  Bead:      23 positions{angstrom}  cell{angstrom}
       E -3.38833e+01 -2.49522e+01  4.24163e+01
       E -1.69946e+01 -1.84820e+01  3.57799e+01
       E -3.92157e+01  6.83075e+01  2.31630e+01
3
# CELL(abcABC): 1322.94304  1322.94304  1322.94304    90.00000    90.00000    90.00000  Step:        2200  Bead:      23 positions{angstrom}  cell{angstrom}
       E -4.41261e+01 -2.91298e+01  3.15765e+00
       E -1.93447e+01 -3.10561e+01  1.39470e+01
       E -1.22485e+01 -1.30187e+01 -8.58688e+00
3
# CELL(abcABC): 1322.94304  1322.94304  1322.94304    90.00000    90.00000    90.00000  Step:        2300  Bead:      23 positions{angstrom}  cell{angstrom}
       E -6.97713e+01 -2.80323e+01  4.89966e+01
       E -3.13605e+01  2.49239e+01 -1.12925e+01
       E -1.01384e+01 -3.16090e+01 -2.95386e+01
3
# CELL(abcABC): 1322.94304  1322.94304  1322.94304    90.00000    90.00000    90.00000  Step:        2400  Bead:      23 positions{angstrom}  cell{angstrom}
       E -3.32388e+01  8.81067e+00  1.86876e+01
       E -2.02611e+01 -1.96428e+01 -1.10834e+01
       E  9.70239e+00 -3.44750e+01 -2.02698e+01
3
# CELL(abcABC): 1322.94304  1322.94304  1322.94304    90.00000    90.00000    90.00000  Step:        2500  Bead:      23 positions{angstrom}  cell{angstrom}
       E -7.06733e+01  1.56885e+01  4.31163e+01
       E -2.08807e+01 -4.56594e+01 -2.41597e+01
       E  3.76715e+01 -4.65301e+01  1.78553e+01
3
# CELL(abcABC): 1322.94304  1322.94304  1322.94304    90.00000    90.00000    90.00000  Step:        2600  Bead:      23 positions{angstrom}  cell{angstrom}
       E -8.10578e+01 -4.56708e+00  4.36717e+01
       E -7.15822e+01 -3.42784e+01 -3.06553e+01
       E  5.32784e+01 -4.32437e+01  8.89795e+01
3
# CELL(abcABC): 1322.94304  1322.94304  1322.94304    90.00000    90.00000    90.00000  Step:        2700  Bead:      23 positions{angstrom}  cell{angstrom}
       E -7.80840e+01 -3.73190e+01  5.95385e+01
       E -3.79860e+01 -3.49838e+01 -4.46717e+01
       E -5.69934e-01 -5.22739e+01  9.05302e+01
3
# CELL(abcABC): 1322.94304  1322.94304  1322.94304    90.00000    90.00000    90.00000  Step:        2800  Bead:      23 positions{angstrom}  cell{angstrom}
       E -4.29469e+01 -4.48160e+01  8.52286e+01
       E -6.78405e+01 -5.34691e+01  6.60909e-01
       E  4.23501e+01 -4.87281e+01  5.44144e+01
3
# CELL(abcABC): 1322.94304  1322.94304  1322.94304    90.00000    90.00000    90.00000  Step:        2900  Bead:      23 positions{angstrom}  cell{angstrom}
       E -6.42216e+01 -3.00513e+01  7.11451e+01
       E -6.48555e+01 -7.08200e+01  3.38011e+01
       E  2.32386e+01 -3.46709e+01  5.83116e+01
3
# CELL(abcABC): 1322.94304  1322.94304  1322.94304    90.00000    90.00000    90.00000  Step:        3000  Bead:      23 positions{angstrom}  cell{angstrom}
       E -4.47558e+01 -4.27785e+01  8.13155e+01
       E -7.98986e+01 -4.14381e+01  6.18243e+00
       E  6.97098e+00  2.51141e+01 -2.17984e+00
3
# CELL(abcABC): 1322.94304  1322.94304  1322.94304    90.00000    90.00000    90.00000  Step:        3100  Bead:      23 positions{angstrom}  cell{angstrom}
       E -4.74758e+01 -2.69618e+01  7.50620e+01
       E -8.09956e+01 -7.00318e+01  3.74027e+01
       E  3.82057e+01  4.94946e+01 -6.54021e+00
3
# CELL(abcABC): 1322.94304  1322.94304  1322.94304    90.00000    90.00000    90.00000  Step:        3200  Bead:      23 positions{angstrom}  cell{angstrom}
       E -4.59460e+01 -3.99103e+00  2.43435e+01
       E -7.14274e+01 -3.83030e+01  6.48231e+01
       E -1.91780e+00  3.23632e+01  1.29149e+01
3
# CELL(abcABC): 1322.94304  1322.94304  1322.94304    90.00000    90.00000    90.00000  Step:        3300  Bead:      23 positions{angstrom}  cell{angstrom}
       E -9.78843e+00  2.23326e+01  6.59718e+01
       E -9.51168e+01 -3.63217e+01  5.91922e+01
       E -1.54116e+01  5.70426e+01 -2.65585e+01
3
# CELL(abcABC): 1322.94304  1322.94304  1322.94304    90.00000    90.00000    90.00000  Step:        3400  Bead:      23 positions{angstrom}  cell{angstrom}
       E -5.56198e+01  2.83079e+01  8.11426e+01
       E -5.63169e+01 -3.09342e+01  3.78067e+01
       E -7.49459e+00  5.05466e+01  2.92024e+01
3
# CELL(abcABC): 1322.94304  1322.94304  1322.94304    90.00000    90.00000    90.00000  Step:        3500  Bead:      23 positions{angstrom}  cell{angstrom}
       E -6.54844e+01  4.03316e+01  7.63636e+01
       E -2.54182e+01 -3.97008e+01  3.29830e+01
       E -1.14111e+01  1.14809e+01  3.25238e+01
3
# CELL(abcABC): 1322.94304  1322.94304  1322.94304    90.00000    90.00000    90.00000  Step:        3600  Bead:      23 positions{angstrom}  cell{angstrom}
       E -9.90799e+01 -1.47565e+00  6.13172e+01
       E -8.12263e+00 -2.27743e+01  4.87505e+01
       E -6.45379e+01 -2.77069e+00  1.62301e+01
3
# CELL(abcABC): 1322.94304  1322.94304  1322.94304    90.00000    90.00000    90.00000  Step:        3700  Bead:      23 positions{angstrom}  cell{angstrom}
       E -7.22123e+01  2.83182e+00  3.14690e+01
       E -5.87672e+00 -5.37648e+01  2.52461e+01
       E -5.52804e+01  1.52265e+01 -1.66697e+00
3
# CELL(abcABC): 1322.94304  1322.94304  1322.94304    90.00000    90.00000    90.00000  Step:        3800  Bead:      23 positions{angstrom}  cell{angstrom}
       E -8.23268e+01  1.81880e+01  3.14975e+01
       E  8.23945e+00 -5.17848e+01  3.65000e+01
       E -3.83440e+01 -1.38680e+01 -1.17262e+01
3
# CELL(abcABC): 1322.94304  1322.94304  1322.94304    90.00000    90.00000    90.00000  Step:        3900  Bead:      23 positions{angstrom}  cell{angstrom}
       E -7.90815e+01 -8.92522e+00 -6.80874e+00
       E -9.07550e+00 -1.59003e+01  5.40688e+00
       E -1.53201e+01 -1.76773e+01 -8.12912e+00
3
# CELL(abcABC): 1322.94304  1322.94304  1322.94304    90.00000    90.00000    90.00000  Step:        4000  Bead:      23 positions{angstrom}  cell{angstrom}
       E -8.48269e+01 -8.36974e+00 -1.35621e+01
       E -3.61887e+01 -4.98436e+00  1.27191e+01
       E -4.73390e+01  1.49402e+00  1.07563e+01
3
# CELL(abcABC): 1322.94304  1322.94304  1322.94304    90.00000    90.00000    90.00000  Step:        4100  Bead:      23 positions{angstrom}  cell{angstrom}
       E -7.26778e+01  1.21738e+01 -7.31068e+01
       E -5.08255e+01  1.46378e+01 -5.53258e+00
       E -2.59519e+01  2.89843e+01  1.13084e+01
3
# CELL(abcABC): 1322.94304  1322.94304  1322.94304    90.00000    90.00000    90.00000  Step:        4200  Bead:      23 positions{angstrom}  cell{angstrom}
       E -5.18840e+01 -1.65350e+01 -1.13637e+02
       E -5.94536e+01  1.99268e+01  1.16946e+01
       E -8.25430e+00  4.11600e+01  4.75295e+00
3
# CELL(abcABC): 1322.94304  1322.94304  1322.94304    90.00000    90.00000    90.00000  Step:        4300  Bead:      23 positions{angstrom}  cell{angstrom}
       E -4.13495e+01  3.21574e+00 -5.69129e+01
       E -2.09009e+01  4.41881e+01 -1.10757e+01
       E  2.91262e+00  1.80705e+01  3.41170e+01
3
# CELL(abcABC): 1322.94304  1322.94304  1322.94304    90.00000    90.00000    90.00000  Step:        4400  Bead:      23 positions{angstrom}  cell{angstrom}
       E -2.68226e+01  2.05111e+01 -6.14079e+01
       E -2.06225e+01  4.99533e+01 -2.57735e+01
       E  2.57832e+01 -4.00884e+01  1.19418e+01
3
# CELL(abcABC): 1322.94304  1322.94304  1322.94304    90.00000    90.00000    90.00000  Step:        4500  Bead:      23 positions{angstrom}  cell{angstrom}
       E -3.03082e+01  1.05268e+01 -7.34208e+01
       E -2.80325e+01  6.60945e+01 -2.37504e+01
       E  2.42939e+01 -5.19258e+01  2.83251e+01
3
# CELL(abcABC): 1322.94304  1322.94304  1322.94304    90.00000    90.00000    90.00000  Step:        4600  Bead:      23 positions{angstrom}  cell{angstrom}
       E -4.88014e+01  1.84276e+01 -2.04410e+01
       E -3.55377e+01  5.75527e+01  1.24514e+01
       E -2.25281e+01 -2.76430e+01  2.91666e+01
3
# CELL(abcABC): 1322.94304  1322.94304  1322.94304    90.00000    90.00000    90.00000  Step:        4700  Bead:      23 positions{angstrom}  cell{angstrom}
       E -1.09674e+01  2.59288e+01 -8.91420e+01
       E -6.22962e+01  5.59555e+01 -3.16076e+00
       E -2.33086e+01 -4.12369e+01  1.69106e+01
3
# CELL(abcABC): 1322.94304  1322.94304  1322.94304    90.00000    90.00000    90.00000  Step:        4800  Bead:      23 positions{angstrom}  cell{angstrom}
       E  1.43325e+01  7.16137e+00 -6.22052e+01
       E -4.37557e+01  2.43927e+01 -1.55169e+01
       E  5.11806e+00 -3.85351e+01  1.98348e+01
3
# CELL(abcABC): 1322.94304  1322.94304  1322.94304    90.00000    90.00000    90.00000  Step:        4900  Bead:      23 positions{angstrom}  cell{angstrom}
       E  2.51099e+01  2.12079e+01 -3.82246e+01
       E -5.15001e+01 -6.56716e+00 -4.36107e+01
       E -2.10130e+01 -3.86390e+01 -3.02561e+01
3
# CELL(abcABC): 1322.94304  1322.94304  1322.94304    90.00000    90.00000    90.00000  Step:        5000  Bead:      23 positions{angstrom}  cell{angstrom}
       E  6.14201e+01  6.98418e+00  1.46196e+01
       E -2.90291e+01 -2.68042e+01 -2.60017e+01
       E -1.62822e+01 -7.02825e+00 -2.07039e+01
3
# CELL(abcABC): 1322.94304  1322.94304  1322.94304    90.00000    90.00000    90.00000  Step:        5100  Bead:      23 positions{angstrom}  cell{angstrom}
       E  1.65652e+01  2.29108e+00  2.23963e+01
       E -2.28400e+01 -2.36376e+01 -5.42323e+01
       E  5.44226e+00  5.52478e+00 -3.89394e+01
3
# CELL(abcABC): 1322.94304  1322.94304  1322.94304    90.00000    90.00000    90.00000  Step:        5200  Bead:      23 positions{angstrom}  cell{angstrom}
       E -4.82694e+01  6.95539e+00  5.05172e+01
       E -4.88999e+01  4.48947e+00 -3.31290e+01
       E  2.64999e+01 -1.27447e-01 -1.62476e+01
3
# CELL(abcABC): 1322.94304  1322.94304  1322.94304    90.00000    90.00000    90.00000  Step:        5300  Bead:      23 positions{angstrom}  cell{angstrom}
       E  1.70929e+01 -1.65569e+01  4.55362e+00
       E -3.30370e+01  3.14880e+01 -6.28129e+00
       E -5.41242e+01  4.21297e+01  2.07952e+01
3
# CELL(abcABC): 1322.94304  1322.94304  1322.94304    90.00000    90.00000    90.00000  Step:        5400  Bead:      23 positions{angstrom}  cell{angstrom}
       E  2.90476e+01  1.42797e+01 -2.70499e+01
       E -3.03993e+01  1.39718e+01  6.06341e+00
       E -3.05824e+01  2.03894e+01  1.11100e+01
3
# CELL(abcABC): 1322.94304  1322.94304  1322.94304    90.00000    90.00000    90.00000  Step:        5500  Bead:      23 positions{angstrom}  cell{angstrom}
       E  3.69772e+01 -1.93779e+01 -1.41298e+01
       E -3.77866e+01  1.18438e+01 -8.81604e+00
       E -2.28935e+01  1.93087e+01  4.33431e+01
3
# CELL(abcABC): 1322.94304  1322.94304  1322.94304    90.00000    90.00000    90.00000  Step:        5600  Bead:      23 positions{angstrom}  cell{angstrom}
       E  7.58033e+00  3.02013e+01 -3.13889e+01
       E -9.90010e+00  1.64543e+01  2.45255e+01
       E -5.68185e+01 -4.37146e-01  1.93831e+01
3
# CELL(abcABC): 1322.94304  1322.94304  1322.94304    90.00000    90.00000    90.00000  Step:        5700  Bead:      23 positions{angstrom}  cell{angstrom}
       E  3.37060e+01 -1.06373e+01 -4.03362e+01
       E -4.30681e+01 -8.36715e-03 -1.08331e+01
       E -3.61931e+01  7.35276e+00 -2.74935e+00
3
# CELL(abcABC): 1322.94304  1322.94304  1322.94304    90.00000    90.00000    90.00000  Step:        5800  Bead:      23 positions{angstrom}  cell{angstrom}
       E  9.13353e+00  1.31872e+01 -2.00472e+01
       E -4.57102e+01 -4.99563e+00 -9.54676e+00
       E -2.16685e+01 -8.01310e+00  2.26616e+00
3
# CELL(abcABC): 1322.94304  1322.94304  1322.94304    90.00000    90.00000    90.00000  Step:        5900  Bead:      23 positions{angstrom}  cell{angstrom}
       E  2.31335e+01 -1.12009e+01  2.74093e+00
       E -1.36571e+01  1.80599e+01  6.55814e+00
       E  2.46914e+01 -5.53317e+01  6.66888e+00
3
# CELL(abcABC): 1322.94304  1322.94304  1322.94304    90.00000    90.00000    90.00000  Step:        6000  Bead:      23 positions{angstrom}  cell{angstrom}
       E -2.14934e+01 -2.55948e+01 -3.56460e+01
       E  3.22525e+01 -1.76016e+01 -1.81276e+01
       E  6.94272e+00 -4.54152e+01 -3.82861e-01
3
# CELL(abcABC): 1322.94304  1322.94304  1322.94304    90.00000    90.00000    90.00000  Step:        6100  Bead:      23 positions{angstrom}  cell{angstrom}
       E -1.84466e+01 -3.22863e+01 -2.76427e+01
       E  8.21343e+01  2.89505e+01 -5.12537e+01
       E  1.18519e+01 -4.58193e+01  1.75537e+01
3
# CELL(abcABC): 1322.94304  1322.94304  1322.94304    90.00000    90.00000    90.00000  Step:        6200  Bead:      23 positions{angstrom}  cell{angstrom}
       E  2.51034e+01 -1.04028e+01 -8.73123e+01
       E  1.14631e+02  3.07878e+01  4.62951e+00
       E  6.81896e+00 -4.41488e+01  6.18599e+00
3
# CELL(abcABC): 1322.94304  1322.94304  1322.94304    90.00000    90.00000    90.00000  Step:        6300  Bead:      23 positions{angstrom}  cell{angstrom}
       E  5.27367e+01 -5.68482e+01 -1.19851e+02
       E  7.93240e+01 -1.29613e+01 -3.25014e+01
       E -4.11120e+00 -5.34968e+01  4.07370e+01
3
# CELL(abcABC): 1322.94304  1322.94304  1322.94304    90.00000    90.00000    90.00000  Step:        6400  Bead:      23 positions{angstrom}  cell{angstrom}
       E  8.66791e+01 -7.42609e+01 -1.40603e+02
       E  1.24982e+01 -3.17064e+01 -3.61002e+01
       E  3.93981e+00 -5.44328e+01 -9.31255e+00
3
# CELL(abcABC): 1322.94304  1322.94304  1322.94304    90.00000    90.00000    90.00000  Step:        6500  Bead:      23 positions{angstrom}  cell{angstrom}
       E  5.40456e+01 -9.97569e+01 -1.17197e+02
       E  2.79341e+01  1.59433e+01 -5.71667e+01
       E  3.60768e+01 -1.77785e+01  9.26464e+00
3
# CELL(abcABC): 1322.94304  1322.94304  1322.94304    90.00000    90.00000    90.00000  Step:        6600  Bead:      23 positions{angstrom}  cell{angstrom}
       E  1.89405e+01 -1.00985e+02 -8.85133e+01
       E  3.40018e+01 -2.26180e+00 -2.95467e+01
       E  3.88197e+01  2.72586e+01  2.39033e+01
3
# CELL(abcABC): 1322.94304  1322.94304  1322.94304    90.00000    90.00000    90.00000  Step:        6700  Bead:      23 positions{angstrom}  cell{angstrom}
       E  1.51456e+01 -1.09969e+02 -1.08078e+02
       E  6.22458e+01 -2.40013e+01  7.86702e+00
       E  5.30826e+00  6.45193e+00  3.38159e+01
3
# CELL(abcABC): 1322.94304  1322.94304  1322.94304    90.00000    90.00000    90.00000  Step:        6800  Bead:      23 positions{angstrom}  cell{angstrom}
       E  2.42632e+01 -1.27499e+02 -7.71697e+01
       E  6.95616e+01 -3.25964e+01  1.58848e-01
       E -1.37332e+01 -1.45306e+01  2.49132e+01
3
# CELL(abcABC): 1322.94304  1322.94304  1322.94304    90.00000    90.00000    90.00000  Step:        6900  Bead:      23 positions{angstrom}  cell{angstrom}
       E  4.03834e+01 -9.97786e+01 -5.91967e+00
       E  6.61722e+01 -1.51282e+01 -2.03651e+01
       E -2.68247e+01 -8.99089e+00 -3.71778e+01
3
# CELL(abcABC): 1322.94304  1322.94304  1322.94304    90.00000    90.00000    90.00000  Step:        7000  Bead:      23 positions{angstrom}  cell{angstrom}
       E  1.98316e+01 -2.97168e+01 -6.57449e+00
       E  4.84922e+01  2.68340e+01 -3.43552e+01
       E  2.99606e+01  3.57112e+01 -4.73475e+01
3
# CELL(abcABC): 1322.94304  1322.94304  1322.94304    90.00000    90.00000    90.00000  Step:        7100  Bead:      23 positions{angstrom}  cell{angstrom}
       E  3.82368e+01 -1.63609e+01 -4.90019e+01
       E -6.68664e+00  2.80069e+01  1.90687e+01
       E  7.64715e+01  1.01105e+01 -4.68445e+01
3
# CELL(abcABC): 1322.94304  1322.94304  1322.94304    90.00000    90.00000    90.00000  Step:        7200  Bead:      23 positions{angstrom}  cell{angstrom}
       E  4.46537e+00 -2.53364e+01 -4.43996e+01
       E -4.67025e+01  6.22515e+01  1.20500e+01
       E  7.02946e+01  5.79295e+01 -4.85608e+01
3
# CELL(abcABC): 1322.94304  1322.94304  1322.94304    90.00000    90.00000    90.00000  Step:        7300  Bead:      23 positions{angstrom}  cell{angstrom}
       E  5.89505e+01 -3.52822e+01 -3.85242e+01
       E -3.99437e+01  1.43607e+01  5.33590e+00
       E  4.57640e+01  4.33525e+01 -5.93963e+00
3
# CELL(abcABC): 1322.94304  1322.94304  1322.94304    90.00000    90.00000    90.00000  Step:        7400  Bead:      23 positions{angstrom}  cell{angstrom}
       E -1.28606e+01 -5.69809e+01 -2.57318e+01
       E -2.01926e+01 -1.71734e+01 -9.91034e+00
       E  5.53532e+01  4.36634e+01  6.84468e+00
3
# CELL(abcABC): 1322.94304  1322.94304  1322.94304    90.00000    90.00000    90.00000  Step:        7500  Bead:      23 positions{angstrom}  cell{angstrom}
       E -1.40718e+01 -5.81864e+01 -6.66187e+01
       E -5.32028e+00 -5.10965e+01 -6.75488e+00
       E  6.49429e+01  1.45880e+00  2.30726e+01
3
# CELL(abcABC): 1322.94304  1322.94304  1322.94304    90.00000    90.00000    90.00000  Step:        7600  Bead:      23 positions{angstrom}  cell{angstrom}
       E -2.25496e+01 -6.25159e+01 -5.34711e+01
       E -5.04463e+01 -4.17169e+01  2.29951e+01
       E  4.31821e+01  1.52035e+01 -2.07217e+01
3
# CELL(abcABC): 1322.94304  1322.94304  1322.94304    90.00000    90.00000    90.00000  Step:        7700  Bead:      23 positions{angstrom}  cell{angstrom}
       E -3.08454e+01 -7.13344e+01 -5.82930e+01
       E -1.15241e+01 -3.09440e+01  9.93419e-03
       E  7.53592e+01 -3.09549e+00 -3.62476e+01
3
# CELL(abcABC): 1322.94304  1322.94304  1322.94304    90.00000    90.00000    90.00000  Step:        7800  Bead:      23 positions{angstrom}  cell{angstrom}
       E  2.76118e+01 -5.25072e+01 -3.98916e+01
       E -5.36251e-01 -1.28089e+01 -3.02757e+01
       E  6.26857e+01 -9.51530e+00 -1.89047e+01
3
# CELL(abcABC): 1322.94304  1322.94304  1322.94304    90.00000    90.00000    90.00000  Step:        7900  Bead:      23 positions{angstrom}  cell{angstrom}
       E  3.86795e+01 -3.67303e+01 -5.25867e+01
       E  2.81762e+01 -3.53347e+01 -4.81823e+01
       E  8.45156e+00 -3.45631e+01 -3.71428e+01
3
# CELL(abcABC): 1322.94304  1322.94304  1322.94304    90.00000    90.00000    90.00000  Step:        8000  Bead:      23 positions{angstrom}  cell{angstrom}
       E  3.15117e+01 -4.85404e+00 -5.46595e+00
       E -2.08553e+01  1.80075e+00 -4.89207e+01
       E  2.51800e+01 -1.24460e+01 -3.60064e+01
3
# CELL(abcABC): 1322.94304  1322.94304  1322.94304    90.00000    90.00000    90.00000  Step:        8100  Bead:      23 positions{angstrom}  cell{angstrom}
       E  1.53038e+01  4.23937e+01 -2.36029e+01
       E -4.70913e+01  1.66827e+01 -5.24770e+01
       E  1.37387e+01  4.35476e+00  1.30038e+01
3
# CELL(abcABC): 1322.94304  1322.94304  1322.94304    90.00000    90.00000    90.00000  Step:        8200  Bead:      23 positions{angstrom}  cell{angstrom}
       E  2.17820e+00  2.50707e+01  2.36873e+00
       E -1.90811e+01 -1.18035e+00 -2.84173e+01
       E -6.88199e+00 -3.59602e+01  2.41053e+01
3
# CELL(abcABC): 1322.94304  1322.94304  1322.94304    90.00000    90.00000    90.00000  Step:        8300  Bead:      23 positions{angstrom}  cell{angstrom}
       E -2.47531e+01  5.23468e+01 -3.48653e+00
       E  1.91542e+01  9.47457e+00 -1.24192e+01
       E  1.14231e+01 -4.58324e+01  3.44375e+01
3
# CELL(abcABC): 1322.94304  1322.94304  1322.94304    90.00000    90.00000    90.00000  Step:        8400  Bead:      23 positions{angstrom}  cell{angstrom}
       E -3.25664e+01  2.65188e+01  1.38398e+01
       E  1.66656e+01  2.18822e+01 -9.32328e+00
       E -2.83993e+01 -4.57136e+01  4.04950e+01
3
# CELL(abcABC): 1322.94304  1322.94304  1322.94304    90.00000    90.00000    90.00000  Step:        8500  Bead:      23 positions{angstrom}  cell{angstrom}
       E -2.95433e+01 -4.38436e+00 -1.87309e+01
       E  2.40981e+00  3.88440e+01 -3.69959e+00
       E  1.95794e+01 -3.40601e+01  7.25632e+01
3
# CELL(abcABC): 1322.94304  1322.94304  1322.94304    90.00000    90.00000    90.00000  Step:        8600  Bead:      23 positions{angstrom}  cell{angstrom}
       E -2.90850e+01  7.38133e-02 -2.33408e+01
       E  3.17214e+00  2.02850e+01  1.45398e+01
       E  4.44612e+01 -1.06963e+01  2.52216e+01
3
# CELL(abcABC): 1322.94304  1322.94304  1322.94304    90.00000    90.00000    90.00000  Step:        8700  Bead:      23 positions{angstrom}  cell{angstrom}
       E  1.73476e+01 -1.68723e+01 -9.67262e+00
       E  4.29355e+00 -2.64725e+01  1.67917e+01
       E  6.30617e+01 -6.04977e+00  8.62487e+00
3
# CELL(abcABC): 1322.94304  1322.94304  1322.94304    90.00000    90.00000    90.00000  Step:        8800  Bead:      23 positions{angstrom}  cell{angstrom}
       E -4.35495e+01  7.57787e+00 -2.28062e+01
       E -4.77627e+00 -3.22714e+01  1.58908e+01
       E  8.71439e+01 -3.22269e+01 -1.52529e+01
3
# CELL(abcABC): 1322.94304  1322.94304  1322.94304    90.00000    90.00000    90.00000  Step:        8900  Bead:      23 positions{angstrom}  cell{angstrom}
       E -5.89553e+01  2.14741e+01  1.41172e+01
       E  1.50439e+01 -3.52761e+01  1.25391e+01
       E  6.62264e+01 -6.72454e+01 -5.18767e+00
3
# CELL(abcABC): 1322.94304  1322.94304  1322.94304    90.00000    90.00000    90.00000  Step:        9000  Bead:      23 positions{angstrom}  cell{angstrom}
       E -3.23111e+01  8.17501e-01  1.55695e+01
       E  1.66625e+01 -7.03772e+00  5.63817e+01
       E  1.72670e+01 -6.81535e+01  4.93215e+00
3
# CELL(abcABC): 1322.94304  1322.94304  1322.94304    90.00000    90.00000    90.00000  Step:        9100  Bead:      23 positions{angstrom}  cell{angstrom}
       E -3.65650e+01  1.35849e+01  9.23687e+00
       E  1.04652e+01  8.30818e+00  4.67481e+01
       E  2.62128e+01 -2.86088e+01  1.86566e+01
3
# CELL(abcABC): 1322.94304  1322.94304  1322.94304    90.00000    90.00000    90.00000  Step:        9200  Bead:      23 positions{angstrom}  cell{angstrom}
       E  8.58277e+00  1.01818e+01 -2.67696e+01
       E -1.09673e+01  1.25386e+01  3.28685e+01
       E  4.12357e+01 -4.91590e+01  2.18118e+01
3
# CELL(abcABC): 1322.94304  1322.94304  1322.94304    90.00000    90.00000    90.00000  Step:        9300  Bead:      23 positions{angstrom}  cell{angstrom}
       E  3.84814e+01 -9.92133e+00 -6.09074e+01
       E -5.07979e+01 -2.08020e+01  2.34317e+01
       E  8.63679e+00 -2.92500e+01 -9.54707e+00
3
# CELL(abcABC): 1322.94304  1322.94304  1322.94304    90.00000    90.00000    90.00000  Step:        9400  Bead:      23 positions{angstrom}  cell{angstrom}
       E  1.63350e+01  2.25427e+01 -5.02913e+01
       E -7.11333e+00 -1.38751e+01  6.56154e+01
       E  2.64965e+01 -1.96338e+01 -9.23990e+00
3
# CELL(abcABC): 1322.94304  1322.94304  1322.94304    90.00000    90.00000    90.00000  Step:        9500  Bead:      23 positions{angstrom}  cell{angstrom}
       E  7.44871e+00  4.47988e+01 -4.44539e+01
       E  3.05431e+01 -2.94993e+01  4.68790e+01
       E  1.69470e+01 -4.36663e+01 -3.78113e+00
3
# CELL(abcABC): 1322.94304  1322.94304  1322.94304    90.00000    90.00000    90.00000  Step:        9600  Bead:      23 positions{angstrom}  cell{angstrom}
       E  2.45531e+01  2.41249e+00 -5.75962e+01
       E  2.18276e+01 -7.43971e+01 -1.36773e+01
       E  1.60657e+01 -1.12721e+01 -8.36379e+00
3
# CELL(abcABC): 1322.94304  1322.94304  1322.94304    90.00000    90.00000    90.00000  Step:        9700  Bead:      23 positions{angstrom}  cell{angstrom}
       E -4.30934e+00 -2.91730e+01 -6.82541e+01
       E  3.20010e+01 -6.51212e+01  8.12408e+00
       E -6.38405e+00  1.85166e+01 -1.32549e+01
3
# CELL(abcABC): 1322.94304  1322.94304  1322.94304    90.00000    90.00000    90.00000  Step:        9800  Bead:      23 positions{angstrom}  cell{angstrom}
       E -3.98089e+01 -5.40794e+01 -5.55488e+01
       E  1.89936e+01 -5.09278e+01  3.18859e+00
       E -1.79558e+01 -4.92935e+00  2.21984e+01
3