3
# CELL(abcABC): 1322.94304  1322.94304  1322.94304    90.00000    90.00000    90.00000  Step:           0  Bead:      30 positions{angstrom}  cell{angstrom}
       E  0.00000e+00  0.00000e+00  0.00000e+00
       E  0.00000e+00  0.00000e+00  0.00000e+00
       E  0.00000e+00  0.00000e+00  0.00000e+00
3
# CELL(abcABC): 1322.94304  1322.94304  1322.94304    90.00000    90.00000    90.00000  Step:         100  Bead:      30 positions{angstrom}  cell{angstrom}
       E  3.47662e+01 -1.67701e+01  3.97777e+00
       E -1.41920e+00 -4.27372e+00  3.10770e+00
       E -1.87535e+01 -2.91302e+01 -1.03054e+01
3
# CELL(abcABC): 1322.94304  1322.94304  1322.94304    90.00000    90.00000    90.00000  Step:         200  Bead:      30 positions{angstrom}  cell{angstrom}
       E -1.03100e+01  7.08842e+00  3.56404e+01
       E  2.45282e+01  1.06436e+01  2.18413e+01
       E -9.11603e+00 -1.54226e+01  1.91739e+00
3
# CELL(abcABC): 1322.94304  1322.94304  1322.94304    90.00000    90.00000    90.00000  Step:         300  Bead:      30 positions{angstrom}  cell{angstrom}
       E  9.14826e+00  1.21722e+01  3.96659e+01
       E  3.39182e+01 -9.09423e+00  2.16206e+01
       E  1.18723e+01  1.06495e+01 -2.07740e+01
3
# CELL(abcABC): 1322.94304  1322.94304  1322.94304    90.00000    90.00000    90.00000  Step:         400  Bead:      30 positions{angstrom}  cell{angstrom}
       E  4.79947e+00  2.73105e+01  8.49817e+00
       E  4.15783e+01 -9.71322e+00 -6.60715e+00
       E  3.89080e+01  1.25642e+00 -4.03498e+01
3
# CELL(abcABC): 1322.94304  1322.94304  1322.94304    90.00000    90.00000    90.00000  Step:         500  Bead:      30 positions{angstrom}  cell{angstrom}
       E  2.36854e+00  1.60221e+01  3.26468e+01
       E  2.76356e+01 -1.17970e+01  2.56002e+01
       E  1.41877e+01 -6.10560e+00 -3.10570e+01
3
# CELL(abcABC): 1322.94304  1322.94304  1322.94304    90.00000    90.00000    90.00000  Step:         600  Bead:      30 positions{angstrom}  cell{angstrom}
       E -1.55846e+01  1.15192e+01  4.69467e+01
       E -3.77351e+01 -1.81678e+01  3.91460e+01
       E  2.38971e+01  1.96996e+01 -2.29123e+01
3
# CELL(abcABC): 1322.94304  1322.94304  1322.94304    90.00000    90.00000    90.00000  Step:         700  Bead:      30 positions{angstrom}  cell{angstrom}
       E -1.94783e+01  6.68662e+00  5.58564e+00
       E -4.14181e+01 -2.73652e-01  3.70152e+01
       E -2.21523e+01  3.12467e+01  4.90537e+00
3
# CELL(abcABC): 1322.94304  1322.94304  1322.94304    90.00000    90.00000    90.00000  Step:         800  Bead:      30 positions{angstrom}  cell{angstrom}
       E  2.20576e+01  2.10636e+01  2.19253e+00
       E  1.32568e+00 -4.95471e+00  2.68633e+01
       E -3.71727e+01  8.28575e+00  1.71005e+01
3
# CELL(abcABC): 1322.94304  1322.94304  1322.94304    90.00000    90.00000    90.00000  Step:         900  Bead:      30 positions{angstrom}  cell{angstrom}
       E  3.45624e+01  2.59865e+01  1.51129e+01
       E  4.84162e+01  2.69224e+01  1.43538e+01
       E -6.47373e+01  4.76033e+01  7.49911e+01
3
# CELL(abcABC): 1322.94304  1322.94304  1322.94304    90.00000    90.00000    90.00000  Step:        1000  Bead:      30 positions{angstrom}  cell{angstrom}
       E  4.34720e+00  1.10296e+01  8.13645e+00
       E  2.04266e+01 -8.33031e-01 -1.90679e+01
       E -9.54416e+00  4.43656e+00  9.79259e+01
3
# CELL(abcABC): 1322.94304  1322.94304  1322.94304    90.00000    90.00000    90.00000  Step:        1100  Bead:      30 positions{angstrom}  cell{angstrom}
       E  1.50537e+01  2.73370e+01  2.59317e+01
       E  4.24902e+01  1.91282e+01 -4.25040e+01
       E  3.62440e-01  9.00854e+00  4.39279e+01
3
# CELL(abcABC): 1322.94304  1322.94304  1322.94304    90.00000    90.00000    90.00000  Step:        1200  Bead:      30 positions{angstrom}  cell{angstrom}
       E -5.48538e+00  3.14473e+01 -1.82380e+01
       E  2.43328e+01 -8.99432e+00 -6.46546e+01
       E  2.35584e+01  3.42550e+01  2.20196e+01
3
# CELL(abcABC): 1322.94304  1322.94304  1322.94304    90.00000    90.00000    90.00000  Step:        1300  Bead:      30 positions{angstrom}  cell{angstrom}
       E -1.89786e+01  7.45524e+00 -4.16405e+01
       E  1.49067e+01 -2.64626e+01 -6.57208e+01
       E -1.44998e+01  4.97201e+01 -1.57500e+01
3
# CELL(abcABC): 1322.94304  1322.94304  1322.94304    90.00000    90.00000    90.00000  Step:        1400  Bead:      30 positions{angstrom}  cell{angstrom}
       E -1.58165e+01  3.66422e+01 -4.32448e+01
       E -1.08652e+01 -2.81798e+01 -7.47565e+01
       E -3.64484e+01  4.54175e+01  2.06109e+01
3
# CELL(abcABC): 1322.94304  1322.94304  1322.94304    90.00000    90.00000    90.00000  Step:        1500  Bead:      30 positions{angstrom}  cell{angstrom}
       E -4.58198e+01  5.31330e+01 -4.43311e+01
       E -2.83706e+01 -2.16740e+01 -4.39513e+01
       E  2.56324e+00  3.08682e+01  4.52700e+01
3
# CELL(abcABC): 1322.94304  1322.94304  1322.94304    90.00000    90.00000    90.00000  Step:        1600  Bead:      30 positions{angstrom}  cell{angstrom}
       E -3.95678e+01  6.79689e+01 -8.41663e+01
       E -2.09438e+01 -3.10823e+01  2.51147e+00
       E -1.41124e+01  4.29965e+01  2.43369e+01
3
# CELL(abcABC): 1322.94304  1322.94304  1322.94304    90.00000    90.00000    90.00000  Step:        1700  Bead:      30 positions{angstrom}  cell{angstrom}
       E -2.12332e+01  4.23532e+01 -1.06207e+01
       E -1.57240e+01 -2.53117e+01 -8.11942e+00
       E -3.95319e+01  1.43008e+01  1.18026e+00
3
# CELL(abcABC): 1322.94304  1322.94304  1322.94304    90.00000    90.00000    90.00000  Step:        1800  Bead:      30 positions{angstrom}  cell{angstrom}
       E -2.35066e+01  2.55190e+01  7.23990e+00
       E -5.09828e+01 -7.69108e+00  1.13411e+01
       E -1.90579e+01  1.03465e+01 -1.36441e+01
3
# CELL(abcABC): 1322.94304  1322.94304  1322.94304    90.00000    90.00000    90.00000  Step:        1900  Bead:      30 positions{angstrom}  cell{angstrom}
       E -4.08976e+01  2.01304e+01  1.02233e+01
       E -4.17245e+01 -2.15678e+01 -4.24502e+00
       E -4.89666e+01  2.96050e+01  4.02117e+00
3
# CELL(abcABC): 1322.94304  1322.94304  1322.94304    90.00000    90.00000    90.00000  Step:        2000  Bead:      30 positions{angstrom}  cell{angstrom}
       E -1.67984e+01  1.23888e+01  4.24439e+01
       E -1.19671e+01 -1.70544e+01 -7.32248e+00
       E -2.78777e+01  1.60193e+01  1.09611e+01
3
# CELL(abcABC): 1322.94304  1322.94304  1322.94304    90.00000    90.00000    90.00000  Step:        2100  Bead:      30 positions{angstrom}  cell{angstrom}
       E -2.77861e+01 -1.61081e+01  3.12445e+01
       E -2.92915e+01 -2.13947e+01  9.97537e-02
       E -5.79321e+01  2.07756e+01 -2.41185e+01
3
# CELL(abcABC): 1322.94304  1322.94304  1322.94304    90.00000    90.00000    90.00000  Step:        2200  Bead:      30 positions{angstrom}  cell{angstrom}
       E -7.32315e+01 -3.05380e+01 -4.69447e-01
       E -4.81066e+01  8.80834e+00  1.52113e+01
       E -2.77144e+01  1.93808e+01 -8.29362e+00
3
# CELL(abcABC): 1322.94304  1322.94304  1322.94304    90.00000    90.00000    90.00000  Step:        2300  Bead:      30 positions{angstrom}  cell{angstrom}
       E -2.80028e+01  1.78433e+01  2.54108e+01
       E -5.21279e+01 -1.87452e+01 -2.11798e+01
       E  1.37767e+00 -6.07032e+00 -4.17276e+01
3
# CELL(abcABC): 1322.94304  1322.94304  1322.94304    90.00000    90.00000    90.00000  Step:        2400  Bead:      30 positions{angstrom}  cell{angstrom}
       E -6.76129e+01 -9.20956e+00  4.01349e+01
       E -3.43301e+01 -2.67498e+01 -2.16336e+01
       E  1.52435e+01 -6.10713e+00 -2.42264e+01
3
# CELL(abcABC): 1322.94304  1322.94304  1322.94304    90.00000    90.00000    90.00000  Step:        2500  Bead:      30 positions{angstrom}  cell{angstrom}
       E -5.64946e+01 -1.10914e+01  4.64029e+01
       E -3.64462e+01 -5.66235e+01  1.37611e+00
       E  2.42087e+01 -1.74311e+01  4.55806e+01
3
# CELL(abcABC): 1322.94304  1322.94304  1322.94304    90.00000    90.00000    90.00000  Step:        2600  Bead:      30 positions{angstrom}  cell{angstrom}
       E -5.50359e+01 -3.03339e+01  7.82621e+01
       E -3.23512e+01 -6.51819e+01 -1.73130e+01
       E  5.36983e+01  1.27422e+01  7.28887e+01
3
# CELL(abcABC): 1322.94304  1322.94304  1322.94304    90.00000    90.00000    90.00000  Step:        2700  Bead:      30 positions{angstrom}  cell{angstrom}
       E -4.46382e+01 -5.85404e+01  1.06935e+02
       E -6.85962e+01 -6.67702e+01 -1.38421e+01
       E  1.84240e+01 -4.53083e+01  7.45223e+01
3
# CELL(abcABC): 1322.94304  1322.94304  1322.94304    90.00000    90.00000    90.00000  Step:        2800  Bead:      30 positions{angstrom}  cell{angstrom}
       E -4.91553e+01 -3.95565e+01  7.78104e+01
       E -3.68500e+01 -1.14026e+01 -2.73538e+00
       E  3.09093e+01 -1.15311e+01  6.43904e+01
3
# CELL(abcABC): 1322.94304  1322.94304  1322.94304    90.00000    90.00000    90.00000  Step:        2900  Bead:      30 positions{angstrom}  cell{angstrom}
       E -4.63063e+01 -4.44397e+01  3.81156e+01
       E -4.98185e+01 -4.46931e+01  1.47351e+01
       E  1.36430e+01 -6.70379e+01  4.08144e+01
3
# CELL(abcABC): 1322.94304  1322.94304  1322.94304    90.00000    90.00000    90.00000  Step:        3000  Bead:      30 positions{angstrom}  cell{angstrom}
       E -2.58437e+01 -2.93927e+01  5.46279e+01
       E -1.33885e+01 -3.52595e+01  4.98798e+00
       E  1.97581e+01 -1.94283e+01  7.57467e+00
3
# CELL(abcABC): 1322.94304  1322.94304  1322.94304    90.00000    90.00000    90.00000  Step:        3100  Bead:      30 positions{angstrom}  cell{angstrom}
       E -4.20295e+01 -5.34185e+01  3.67492e+01
       E -3.63403e+01 -4.78211e+01  5.62393e+01
       E  1.39674e+01  8.02736e+00  8.82120e-01
3
# CELL(abcABC): 1322.94304  1322.94304  1322.94304    90.00000    90.00000    90.00000  Step:        3200  Bead:      30 positions{angstrom}  cell{angstrom}
       E -3.91099e+01 -3.55216e+01  4.57874e+01
       E -5.76149e+01 -3.42115e+01  6.19984e+01
       E  1.48843e+01  1.54033e+01  2.06206e+00
3
# CELL(abcABC): 1322.94304  1322.94304  1322.94304    90.00000    90.00000    90.00000  Step:        3300  Bead:      30 positions{angstrom}  cell{angstrom}
       E -4.46457e+01  3.59646e+01  7.84382e+01
       E -6.76296e+01 -1.67544e+01  6.91015e+01
       E  1.72347e+01  4.15280e+01  5.85948e+01
3
# CELL(abcABC): 1322.94304  1322.94304  1322.94304    90.00000    90.00000    90.00000  Step:        3400  Bead:      30 positions{angstrom}  cell{angstrom}
       E -7.17699e+01  3.36946e+01  4.57811e+01
       E -6.56120e+01 -9.06411e+00  4.70068e+01
       E  1.64796e+01  1.11148e+01  4.06541e+01
3
# CELL(abcABC): 1322.94304  1322.94304  1322.94304    90.00000    90.00000    90.00000  Step:        3500  Bead:      30 positions{angstrom}  cell{angstrom}
       E -5.88795e+01 -1.61132e+01  5.04286e+01
       E -7.62015e+01 -4.60641e+01  5.85383e+01
       E -9.45401e+00  3.67689e+01  1.08503e+01
3
# CELL(abcABC): 1322.94304  1322.94304  1322.94304    90.00000    90.00000    90.00000  Step:        3600  Bead:      30 positions{angstrom}  cell{angstrom}
       E -6.47777e+01 -3.90369e+01  2.45229e+01
       E -2.95673e+01 -2.00907e+01  3.04717e+01
       E -4.82403e+01  8.82072e+00 -1.01115e+00
3
# CELL(abcABC): 1322.94304  1322.94304  1322.94304    90.00000    90.00000    90.00000  Step:        3700  Bead:      30 positions{angstrom}  cell{angstrom}
       E -6.49225e+01 -4.28508e+01  4.77067e+01
       E  8.82311e+00 -3.80669e+01 -1.82776e+01
       E -6.09431e+01  8.77731e+00 -3.07205e+01
3
# CELL(abcABC): 1322.94304  1322.94304  1322.94304    90.00000    90.00000    90.00000  Step:        3800  Bead:      30 positions{angstrom}  cell{angstrom}
       E -5.78177e+01 -3.77591e+01  2.62675e+01
       E  2.14028e+01 -2.82889e+01 -3.33482e+01
       E -3.72975e+01 -2.05326e+01 -2.53911e+01
3
# CELL(abcABC): 1322.94304  1322.94304  1322.94304    90.00000    90.00000    90.00000  Step:        3900  Bead:      30 positions{angstrom}  cell{angstrom}
       E -4.73501e+01 -2.62471e+01  3.24116e+01
       E -4.33460e+01 -4.04741e+01 -2.87213e+01
       E -2.46800e+01 -4.24089e+01  2.03701e-01
3
# CELL(abcABC): 1322.94304  1322.94304  1322.94304    90.00000    90.00000    90.00000  Step:        4000  Bead:      30 positions{angstrom}  cell{angstrom}
       E -6.74205e+01 -2.40006e+01  6.57518e+00
       E -5.59580e+01  1.10988e+01 -1.52597e+01
       E -2.17274e+01 -2.09566e+01 -1.41810e+01
3
# CELL(abcABC): 1322.94304  1322.94304  1322.94304    90.00000    90.00000    90.00000  Step:        4100  Bead:      30 positions{angstrom}  cell{angstrom}
       E -7.59894e+01  3.87670e+00 -4.06790e+01
       E -4.37767e+01  2.37404e+01  1.78705e+01
       E -6.19525e+01  2.80785e+00 -7.96453e+00
3
# CELL(abcABC): 1322.94304  1322.94304  1322.94304    90.00000    90.00000    90.00000  Step:        4200  Bead:      30 positions{angstrom}  cell{angstrom}
       E -4.42479e+01  2.86440e-02 -9.46084e+01
       E -2.91464e+01  1.20215e+01 -2.25358e+01
       E -5.47009e+01 -1.22864e+01 -2.74307e+01
3
# CELL(abcABC): 1322.94304  1322.94304  1322.94304    90.00000    90.00000    90.00000  Step:        4300  Bead:      30 positions{angstrom}  cell{angstrom}
       E -5.80668e+01  1.90886e+01 -9.53386e+01
       E -9.38104e+00  3.82042e+01 -1.50013e+01
       E -3.08088e+01  4.96058e+00 -7.28756e+00
3
# CELL(abcABC): 1322.94304  1322.94304  1322.94304    90.00000    90.00000    90.00000  Step:        4400  Bead:      30 positions{angstrom}  cell{angstrom}
       E -7.89739e+00  3.70676e+01 -9.38852e+01
       E -4.49380e+01  4.64162e+01  1.86717e+01
       E -2.35080e+01 -9.95942e+00  9.41647e-01
3
# CELL(abcABC): 1322.94304  1322.94304  1322.94304    90.00000    90.00000    90.00000  Step:        4500  Bead:      30 positions{angstrom}  cell{angstrom}
       E -4.41653e+01  5.36305e+00 -8.01827e+01
       E -5.75765e+01  3.54390e+01  1.70360e+01
       E -1.65449e+01 -1.47377e+01  8.75026e+00
3
# CELL(abcABC): 1322.94304  1322.94304  1322.94304    90.00000    90.00000    90.00000  Step:        4600  Bead:      30 positions{angstrom}  cell{angstrom}
       E -1.86191e+01  2.11054e+01 -3.45916e+01
       E -6.22498e+01  6.80348e+01  2.13727e+01
       E  4.18211e+00 -2.81452e+01  4.52525e+00
3
# CELL(abcABC): 1322.94304  1322.94304  1322.94304    90.00000    90.00000    90.00000  Step:        4700  Bead:      30 positions{angstrom}  cell{angstrom}
       E -6.17071e+00  1.64436e+01 -6.72967e+01
       E -6.20224e+01  1.51196e+00 -5.96232e+00
       E -1.10282e+00 -2.38840e+01  3.22021e+01
3
# CELL(abcABC): 1322.94304  1322.94304  1322.94304    90.00000    90.00000    90.00000  Step:        4800  Bead:      30 positions{angstrom}  cell{angstrom}
       E  2.17271e+01  4.75958e+01 -5.31112e+01
       E -5.67565e+01 -2.25431e+01 -3.16225e+01
       E  6.09382e-02 -4.00436e+01 -9.20704e+00
3
# CELL(abcABC): 1322.94304  1322.94304  1322.94304    90.00000    90.00000    90.00000  Step:        4900  Bead:      30 positions{angstrom}  cell{angstrom}
       E  3.76696e+01  2.80161e+01 -3.22150e+01
       E -6.23172e+01 -4.17064e+01 -3.90517e+01
       E  1.09029e+01 -3.03697e+01 -2.17290e+00
3
# CELL(abcABC): 1322.94304  1322.94304  1322.94304    90.00000    90.00000    90.00000  Step:        5000  Bead:      30 positions{angstrom}  cell{angstrom}
       E  9.03575e+01  3.13623e+01 -4.24157e+01
       E -6.89797e+01 -2.70632e+01 -3.69126e+01
       E  3.76123e+01 -1.61900e+01 -1.07767e+01
3
# CELL(abcABC): 1322.94304  1322.94304  1322.94304    90.00000    90.00000    90.00000  Step:        5100  Bead:      30 positions{angstrom}  cell{angstrom}
       E  8.27192e+01  5.01172e+01  1.93535e+01
       E -6.57551e+01 -3.28058e+01  1.69529e+00
       E  1.94188e+01 -1.47098e+01  2.31308e+00
3
# CELL(abcABC): 1322.94304  1322.94304  1322.94304    90.00000    90.00000    90.00000  Step:        5200  Bead:      30 positions{angstrom}  cell{angstrom}
       E  4.14764e+01  7.28833e+00 -2.76541e+01
       E -6.44744e+01 -5.13043e-02 -2.78589e+00
       E  4.18465e+00  1.48616e+01 -2.91843e+01
3
# CELL(abcABC): 1322.94304  1322.94304  1322.94304    90.00000    90.00000    90.00000  Step:        5300  Bead:      30 positions{angstrom}  cell{angstrom}
       E  2.30364e+01  2.06503e+00 -4.95233e+00
       E -5.22869e+01  3.15401e+01 -1.52587e+01
       E -1.85878e+01  2.82504e+01  5.80291e+00
3
# CELL(abcABC): 1322.94304  1322.94304  1322.94304    90.00000    90.00000    90.00000  Step:        5400  Bead:      30 positions{angstrom}  cell{angstrom}
       E -8.01981e+00  3.07564e+01  6.19721e+00
       E -5.01195e+01  4.27600e+01 -3.28337e+01
       E -6.31750e+00  2.97539e+01  2.32999e+01
3
# CELL(abcABC): 1322.94304  1322.94304  1322.94304    90.00000    90.00000    90.00000  Step:        5500  Bead:      30 positions{angstrom}  cell{angstrom}
       E  8.77331e+00  5.24419e+01 -1.67740e+01
       E -1.35499e+01  1.51524e+00 -8.56285e-01
       E  1.14936e+01  2.49684e+01  1.65567e+01
3
# CELL(abcABC): 1322.94304  1322.94304  1322.94304    90.00000    90.00000    90.00000  Step:        5600  Bead:      30 positions{angstrom}  cell{angstrom}
       E  2.11306e+01  1.60478e+01 -1.43394e+01
       E -4.06027e+01  2.77146e+01 -7.65252e+00
       E -8.26629e+00  2.62862e+00 -5.86233e+00
3
# CELL(abcABC): 1322.94304  1322.94304  1322.94304    90.00000    90.00000    90.00000  Step:        5700  Bead:      30 positions{angstrom}  cell{angstrom}
       E -7.86510e+00  1.31544e+01 -8.58086e+00
       E  1.97272e+00  1.43965e+01  9.24434e+00
       E -1.97580e+01 -3.50190e+01  2.30168e+01
3
# CELL(abcABC): 1322.94304  1322.94304  1322.94304    90.00000    90.00000    90.00000  Step:        5800  Bead:      30 positions{angstrom}  cell{angstrom}
       E -2.58056e+01  2.53427e+01  1.15441e+00
       E -3.92491e+00  1.14563e+01  3.90659e-01
       E -1.20448e+01 -4.73757e+01 -3.39846e+01
3
# CELL(abcABC): 1322.94304  1322.94304  1322.94304    90.00000    90.00000    90.00000  Step:        5900  Bead:      30 positions{angstrom}  cell{angstrom}
       E -4.86042e+00  5.58847e+00  2.61881e+01
       E -1.27188e+01  1.38241e+01 -2.56086e+01
       E  1.01811e+01 -4.88759e+01  1.15040e-01
3
# CELL(abcABC): 1322.94304  1322.94304  1322.94304    90.00000    90.00000    90.00000  Step:        6000  Bead:      30 positions{angstrom}  cell{angstrom}
       E -6.43626e+00 -1.33360e+01 -2.08608e+01
       E  5.53378e-02 -1.48447e+01 -5.07236e+01
       E -5.25534e-01 -5.04457e+01 -2.77106e+01
3
# CELL(abcABC): 1322.94304  1322.94304  1322.94304    90.00000    90.00000    90.00000  Step:        6100  Bead:      30 positions{angstrom}  cell{angstrom}
       E  2.67214e+01 -5.09467e+01 -3.74487e+01
       E  1.70757e+01 -3.13940e+01 -5.03023e+01
       E  1.77681e+01 -2.20971e+01 -2.81272e+00
3
# CELL(abcABC): 1322.94304  1322.94304  1322.94304    90.00000    90.00000    90.00000  Step:        6200  Bead:      30 positions{angstrom}  cell{angstrom}
       E  3.53934e+01 -6.85904e+01 -6.85381e+01
       E  7.50874e+01 -1.80899e+01 -3.24485e+01
       E -4.65802e+00 -5.04488e+01  1.72927e+00
3
# CELL(abcABC): 1322.94304  1322.94304  1322.94304    90.00000    90.00000    90.00000  Step:        6300  Bead:      30 positions{angstrom}  cell{angstrom}
       E  4.77675e+01 -8.20836e+01 -1.13234e+02
       E  7.12921e+01 -3.16964e+01 -1.60374e+01
       E  2.54787e+01 -5.06627e+01  7.89513e-01
3
# CELL(abcABC): 1322.94304  1322.94304  1322.94304    90.00000    90.00000    90.00000  Step:        6400  Bead:      30 positions{angstrom}  cell{angstrom}
       E  2.74522e+01 -8.29143e+01 -9.58204e+01
       E  5.02327e+01 -2.63855e+01 -2.36199e+01
       E  1.52006e+00 -6.89029e+00  2.44664e+01
3
# CELL(abcABC): 1322.94304  1322.94304  1322.94304    90.00000    90.00000    90.00000  Step:        6500  Bead:      30 positions{angstrom}  cell{angstrom}
       E  3.51447e+01 -8.47609e+01 -1.17539e+02
       E  6.93139e+00  1.80844e+01 -5.50520e+01
       E -1.60293e+01  8.33211e+00 -1.84330e+00
3
# CELL(abcABC): 1322.94304  1322.94304  1322.94304    90.00000    90.00000    90.00000  Step:        6600  Bead:      30 positions{angstrom}  cell{angstrom}
       E  3.09981e+01 -9.51458e+01 -1.28677e+02
       E  3.07618e+01 -4.14156e+00 -1.72446e+01
       E -6.58360e+00 -5.09750e+01  1.19581e+01
3
# CELL(abcABC): 1322.94304  1322.94304  1322.94304    90.00000    90.00000    90.00000  Step:        6700  Bead:      30 positions{angstrom}  cell{angstrom}
       E  3.81588e+01 -8.63690e+01 -1.36232e+02
       E  4.49235e+01 -3.96773e+00 -5.33692e+01
       E -3.94590e+01 -3.49951e+01  4.06803e+01
3
# CELL(abcABC): 1322.94304  1322.94304  1322.94304    90.00000    90.00000    90.00000  Step:        6800  Bead:      30 positions{angstrom}  cell{angstrom}
       E  2.90250e+01 -1.13836e+02 -9.62922e+01
       E  3.05241e+01 -2.06497e+00 -3.66602e+01
       E -1.41756e+01 -3.47152e+01  5.76787e+01
3
# CELL(abcABC): 1322.94304  1322.94304  1322.94304    90.00000    90.00000    90.00000  Step:        6900  Bead:      30 positions{angstrom}  cell{angstrom}
       E  2.86878e+00 -9.88099e+01 -4.90047e+01
       E  2.47131e+01 -1.90138e+01 -1.05266e+01
       E  5.50982e-01 -1.44398e+01  1.63607e+01
3
# CELL(abcABC): 1322.94304  1322.94304  1322.94304    90.00000    90.00000    90.00000  Step:        7000  Bead:      30 positions{angstrom}  cell{angstrom}
       E  1.96685e+01 -5.48696e+01 -4.02966e+01
       E  1.54183e+01  2.69931e+01 -7.42491e+00
       E  4.25322e+01 -3.86288e+00  4.03798e+01
3
# CELL(abcABC): 1322.94304  1322.94304  1322.94304    90.00000    90.00000    90.00000  Step:        7100  Bead:      30 positions{angstrom}  cell{angstrom}
       E -2.64129e+00 -3.72963e+01 -5.85483e+01
       E -1.45924e+01  4.59088e+01  2.80006e+01
       E  4.53241e+01  1.50288e+01 -1.32639e+01
3
# CELL(abcABC): 1322.94304  1322.94304  1322.94304    90.00000    90.00000    90.00000  Step:        7200  Bead:      30 positions{angstrom}  cell{angstrom}
       E -3.17316e+01 -3.87498e+01 -6.81992e+01
       E  4.04517e+00  5.58747e+01  4.75890e+01
       E  3.66931e+01  4.60740e+01  3.39382e+00
3
# CELL(abcABC): 1322.94304  1322.94304  1322.94304    90.00000    90.00000    90.00000  Step:        7300  Bead:      30 positions{angstrom}  cell{angstrom}
       E  3.48307e+01  1.33914e+01 -4.06739e+01
       E -3.22797e+01  2.28141e+01  3.27801e+01
       E  6.55994e+01  2.56603e+01 -3.61438e+01
3
# CELL(abcABC): 1322.94304  1322.94304  1322.94304    90.00000    90.00000    90.00000  Step:        7400  Bead:      30 positions{angstrom}  cell{angstrom}
       E  1.31066e+01  7.70681e+00 -5.33275e+00
       E -5.87166e+00  1.01102e+01  1.35194e+01
       E  6.16762e+01  4.22825e+01 -4.93338e+01
3
# CELL(abcABC): 1322.94304  1322.94304  1322.94304    90.00000    90.00000    90.00000  Step:        7500  Bead:      30 positions{angstrom}  cell{angstrom}
       E -2.62253e+01 -2.97900e+01 -3.64250e+01
       E -1.72778e+01 -1.30932e+01  2.18082e+01
       E  6.34684e+01  4.91651e+01 -3.03494e+01
3
# CELL(abcABC): 1322.94304  1322.94304  1322.94304    90.00000    90.00000    90.00000  Step:        7600  Bead:      30 positions{angstrom}  cell{angstrom}
       E -2.14323e+01 -5.60682e+01 -4.42587e+01
       E -3.63641e+01 -4.20358e+01 -2.99110e+00
       E  6.72224e+01  6.76855e+01 -3.07522e+01
3
# CELL(abcABC): 1322.94304  1322.94304  1322.94304    90.00000    90.00000    90.00000  Step:        7700  Bead:      30 positions{angstrom}  cell{angstrom}
       E -2.78178e+00 -5.91101e+01 -5.20055e+01
       E  5.89041e+00 -6.20418e+01 -6.80923e+00
       E  6.72545e+01  3.71751e+01 -3.77099e+01
3
# CELL(abcABC): 1322.94304  1322.94304  1322.94304    90.00000    90.00000    90.00000  Step:        7800  Bead:      30 positions{angstrom}  cell{angstrom}
       E  1.39957e-01 -6.36560e+01 -3.68163e+01
       E  2.00656e+01 -4.86975e+01 -3.67301e+01
       E  5.21461e+01  1.27834e+01 -3.74990e+01
3
# CELL(abcABC): 1322.94304  1322.94304  1322.94304    90.00000    90.00000    90.00000  Step:        7900  Bead:      30 positions{angstrom}  cell{angstrom}
       E  1.89715e+01 -1.73664e+01 -2.92496e+01
       E  1.43255e+01 -3.18066e+01 -4.57132e+01
       E  8.42296e+01  1.20614e+01 -5.02224e+01
3
# CELL(abcABC): 1322.94304  1322.94304  1322.94304    90.00000    90.00000    90.00000  Step:        8000  Bead:      30 positions{angstrom}  cell{angstrom}
       E  1.89995e+01  5.43988e+00 -1.50706e+01
       E -1.14761e+01 -1.65581e+01 -4.74058e+01
       E  4.53355e+01 -1.31091e+01 -2.68897e+01
3
# CELL(abcABC): 1322.94304  1322.94304  1322.94304    90.00000    90.00000    90.00000  Step:        8100  Bead:      30 positions{angstrom}  cell{angstrom}
       E  4.17888e+01  5.41422e+01 -6.51587e+00
       E -1.83771e+01 -4.71718e+00 -5.31542e+01
       E -4.32096e+00 -1.80820e+01 -1.74640e+00
3
# CELL(abcABC): 1322.94304  1322.94304  1322.94304    90.00000    90.00000    90.00000  Step:        8200  Bead:      30 positions{angstrom}  cell{angstrom}
       E  2.10686e+01  1.22568e+01  7.73029e+00
       E -4.72218e+00  3.62808e+01 -9.29784e+00
       E -1.19000e+01 -2.70578e+01  1.46475e+00
3
# CELL(abcABC): 1322.94304  1322.94304  1322.94304    90.00000    90.00000    90.00000  Step:        8300  Bead:      30 positions{angstrom}  cell{angstrom}
       E  3.95565e+01  4.37295e+01 -6.35235e+00
       E  4.02508e+01  2.11566e+00 -7.51784e+00
       E -1.39551e+01 -2.82669e+01  2.21245e+01
3
# CELL(abcABC): 1322.94304  1322.94304  1322.94304    90.00000    90.00000    90.00000  Step:        8400  Bead:      30 positions{angstrom}  cell{angstrom}
       E  3.10577e+01 -1.61636e+01 -1.88662e+01
       E -2.61197e+00  1.03573e+01  1.44231e+01
       E  9.75787e+00 -4.65497e+01  4.65251e+01
3
# CELL(abcABC): 1322.94304  1322.94304  1322.94304    90.00000    90.00000    90.00000  Step:        8500  Bead:      30 positions{angstrom}  cell{angstrom}
       E  2.17200e+01  1.79492e+01 -1.48972e+01
       E  2.24751e+01  7.04989e+00  1.66432e+01
       E  3.03818e+01 -2.09066e+01  3.59448e+01
3
# CELL(abcABC): 1322.94304  1322.94304  1322.94304    90.00000    90.00000    90.00000  Step:        8600  Bead:      30 positions{angstrom}  cell{angstrom}
       E -1.59752e+01 -7.75047e+00  1.36188e+00
       E  3.28722e+01 -1.23756e+01  1.40643e+01
       E  4.78159e+01  2.45900e+01  2.74752e+01
3
# CELL(abcABC): 1322.94304  1322.94304  1322.94304    90.00000    90.00000    90.00000  Step:        8700  Bead:      30 positions{angstrom}  cell{angstrom}
       E -7.05822e+01  2.19683e+01 -2.63127e+01
       E  2.20634e+01 -2.02688e+01  2.07869e+01
       E  8.14910e+01 -1.61334e+01  3.77572e+01
3
# CELL(abcABC): 1322.94304  1322.94304  1322.94304    90.00000    90.00000    90.00000  Step:        8800  Bead:      30 positions{angstrom}  cell{angstrom}
       E -3.67916e+01  3.25503e+01 -1.03182e+01
       E -4.07058e+00 -3.98018e+01  3.84380e+01
       E  6.06334e+01 -5.35893e+01  3.84121e+01
3
# CELL(abcABC): 1322.94304  1322.94304  1322.94304    90.00000    90.00000    90.00000  Step:        8900  Bead:      30 positions{angstrom}  cell{angstrom}
       E -3.09569e+01  6.23356e+01 -1.41652e+01
       E -2.99609e+01 -3.13362e+01  3.19632e+01
       E  3.45113e+01 -8.92256e+01  3.81028e+01
3
# CELL(abcABC): 1322.94304  1322.94304  1322.94304    90.00000    90.00000    90.00000  Step:        9000  Bead:      30 positions{angstrom}  cell{angstrom}
       E -2.00957e+01  6.56275e+01  1.65728e+01
       E -5.47632e+01 -6.56741e+01  4.42327e+01
       E  2.37998e+01 -6.06042e+01  4.73283e+00
3
# CELL(abcABC): 1322.94304  1322.94304  1322.94304    90.00000    90.00000    90.00000  Step:        9100  Bead:      30 positions{angstrom}  cell{angstrom}
       E  7.79790e+00  2.49252e+01  3.28577e+01
       E -3.63585e+01  1.68685e+00  3.37961e+01
       E  1.72747e+00 -6.44226e+01  1.19679e+01
3
# CELL(abcABC): 1322.94304  1322.94304  1322.94304    90.00000    90.00000    90.00000  Step:        9200  Bead:      30 positions{angstrom}  cell{angstrom}
       E  3.03721e+00  4.25728e+01 -1.53148e+00
       E -3.48716e+01 -1.43335e+01  3.05340e+01
       E  3.05343e+01 -4.09835e+01 -1.11970e+00
3
# CELL(abcABC): 1322.94304  1322.94304  1322.94304    90.00000    90.00000    90.00000  Step:        9300  Bead:      30 positions{angstrom}  cell{angstrom}
       E  4.58499e+01  4.72988e+01 -4.83134e+01
       E -2.02666e+00 -4.91583e+01  5.68994e+01
       E  5.51022e+01 -2.47208e+01  3.73620e-01
3
# CELL(abcABC): 1322.94304  1322.94304  1322.94304    90.00000    90.00000    90.00000  Step:        9400  Bead:      30 positions{angstrom}  cell{angstrom}
       E  3.88571e+01  3.17022e+01 -1.68912e+01
       E -9.13783e+00 -4.97008e+01  1.13671e+01
       E  8.73210e+00 -6.02067e+00  1.11307e+01
3
# CELL(abcABC): 1322.94304  1322.94304  1322.94304    90.00000    90.00000    90.00000  Step:        9500  Bead:      30 positions{angstrom}  cell{angstrom}
       E  3.74425e+01  6.96302e-02 -2.54178e+01
       E  5.67711e+00 -2.52685e+01  1.89512e+01
       E  1.60459e+01 -2.03844e+01 -2.45762e+01
3
# CELL(abcABC): 1322.94304  1322.94304  1322.94304    90.00000    90.00000    90.00000  Step:        9600  Bead:      30 positions{angstrom}  cell{angstrom}
       E  7.70420e+00 -8.04230e+00 -3.38034e+01
       E  2.37889e+01 -2.80763e+01  8.91057e+00
       E  2.12635e+00 -3.38746e+01 -5.06704e+00
3
# CELL(abcABC): 1322.94304  1322.94304  1322.94304    90.00000    90.00000    90.00000  Step:        9700  Bead:      30 positions{angstrom}  cell{angstrom}
       E -4.10525e+01 -6.16094e+01 -6.21658e+01
       E  4.07993e+01 -6.80171e+01 -2.43925e+01
       E -3.77693e+01  9.61826e-01  4.69862e+00
3
# CELL(abcABC): 1322.94304  1322.94304  1322.94304    90.00000    90.00000    90.00000  Step:        9800  Bead:      30 positions{angstrom}  cell{angstrom}
       E -1.64658e+01 -4.44088e+01 -7.08773e+01
       E  3.96216e+01 -7.64847e+01 -1.45931e+01
       E -2.61337e+01 -2.72675e+01 -1.57152e+01
3