3
# CELL(abcABC): 1322.94304  1322.94304  1322.94304    90.00000    90.00000    90.00000  Step:           0  Bead:      28 positions{angstrom}  cell{angstrom}
       E  0.00000e+00  0.00000e+00  0.00000e+00
       E  0.00000e+00  0.00000e+00  0.00000e+00
       E  0.00000e+00  0.00000e+00  0.00000e+00
3
# CELL(abcABC): 1322.94304  1322.94304  1322.94304    90.00000    90.00000    90.00000  Step:         100  Bead:      28 positions{angstrom}  cell{angstrom}
       E  2.64839e+01 -9.40641e-01  5.22542e+00
       E  1.39621e+01 -1.76727e+01  2.80741e+00
       E -1.64340e+01 -1.29912e+01 -1.41082e+01
3
# CELL(abcABC): 1322.94304  1322.94304  1322.94304    90.00000    90.00000    90.00000  Step:         200  Bead:      28 positions{angstrom}  cell{angstrom}
       E  1.70490e+01  2.12935e+01  3.05435e+01
       E  1.35468e+01 -9.30927e+00 -1.28154e+00
       E  1.52710e+01 -2.42959e+01  2.60727e+01
3
# CELL(abcABC): 1322.94304  1322.94304  1322.94304    90.00000    90.00000    90.00000  Step:         300  Bead:      28 positions{angstrom}  cell{angstrom}
       E  1.59880e+01  2.39382e+01  2.57154e+01
       E  2.00953e+01 -3.52144e+01  2.19133e+01
       E  1.46363e+01 -4.47455e+00  2.39276e-01
3
# CELL(abcABC): 1322.94304  1322.94304  1322.94304    90.00000    90.00000    90.00000  Step:         400  Bead:      28 positions{angstrom}  cell{angstrom}
       E  5.98618e+00  1.91641e+01  2.41847e+00
       E  2.02160e+00 -1.65829e+01  1.10173e+01
       E  3.25825e+01 -2.02276e+01 -2.57051e+01
3
# CELL(abcABC): 1322.94304  1322.94304  1322.94304    90.00000    90.00000    90.00000  Step:         500  Bead:      28 positions{angstrom}  cell{angstrom}
       E  2.98486e+00  1.06044e+01 -2.21277e+00
       E  2.47465e+01  7.55287e+00  1.20870e+01
       E  4.05160e+01 -2.09590e+01 -1.58070e+01
3
# CELL(abcABC): 1322.94304  1322.94304  1322.94304    90.00000    90.00000    90.00000  Step:         600  Bead:      28 positions{angstrom}  cell{angstrom}
       E  2.53448e+01 -6.43189e+00  4.79432e+01
       E -2.49323e+00 -2.77261e+01  7.00940e+01
       E  4.00600e+01  9.68379e-01 -8.92732e-01
3
# CELL(abcABC): 1322.94304  1322.94304  1322.94304    90.00000    90.00000    90.00000  Step:         700  Bead:      28 positions{angstrom}  cell{angstrom}
       E  2.34865e+01  1.58443e+01  6.50329e+00
       E -3.89657e+01  2.28685e+00  3.16732e+01
       E -5.87358e+00  3.66346e+01  2.03033e+01
3
# CELL(abcABC): 1322.94304  1322.94304  1322.94304    90.00000    90.00000    90.00000  Step:         800  Bead:      28 positions{angstrom}  cell{angstrom}
       E  5.58635e+01  3.45959e+01  7.10974e+00
       E -1.47696e+01 -2.72744e+01  5.83067e+01
       E -4.81265e+01  8.28865e+00  3.21253e+01
3
# CELL(abcABC): 1322.94304  1322.94304  1322.94304    90.00000    90.00000    90.00000  Step:         900  Bead:      28 positions{angstrom}  cell{angstrom}
       E  3.77651e+01  6.81205e-01 -7.88174e+00
       E  4.15794e+00  3.55753e+01  1.89732e+01
       E -4.95994e+01  1.47471e+01  9.26779e+01
3
# CELL(abcABC): 1322.94304  1322.94304  1322.94304    90.00000    90.00000    90.00000  Step:        1000  Bead:      28 positions{angstrom}  cell{angstrom}
       E  2.82737e+01  1.98502e+01 -1.00282e+01
       E  1.01254e+01  1.83338e+01 -2.86639e+01
       E -5.95818e+00  1.07211e+01  6.61139e+01
3
# CELL(abcABC): 1322.94304  1322.94304  1322.94304    90.00000    90.00000    90.00000  Step:        1100  Bead:      28 positions{angstrom}  cell{angstrom}
       E  1.75636e+01  1.74748e+01  3.28173e+00
       E -6.83505e+00  1.04569e+01 -5.24042e+01
       E  2.52160e+01 -2.75482e+00  3.42329e+01
3
# CELL(abcABC): 1322.94304  1322.94304  1322.94304    90.00000    90.00000    90.00000  Step:        1200  Bead:      28 positions{angstrom}  cell{angstrom}
       E -2.20494e+01  8.85285e+00  2.84294e+00
       E  2.56991e+01  1.38306e+01 -5.58251e+01
       E -7.76635e-01  6.23048e+01  3.32163e+01
3
# CELL(abcABC): 1322.94304  1322.94304  1322.94304    90.00000    90.00000    90.00000  Step:        1300  Bead:      28 positions{angstrom}  cell{angstrom}
       E  5.46579e+00  3.28972e+01 -2.95168e+01
       E  1.59362e+01 -6.69945e-01 -7.01278e+01
       E -1.25390e+01  7.15427e+01  1.36486e+01
3
# CELL(abcABC): 1322.94304  1322.94304  1322.94304    90.00000    90.00000    90.00000  Step:        1400  Bead:      28 positions{angstrom}  cell{angstrom}
       E -1.11226e+01  4.57446e+01 -4.60914e+01
       E  4.16799e+00 -3.40560e+01 -9.28734e+01
       E -2.29690e+00  3.47496e+01  1.75034e+01
3
# CELL(abcABC): 1322.94304  1322.94304  1322.94304    90.00000    90.00000    90.00000  Step:        1500  Bead:      28 positions{angstrom}  cell{angstrom}
       E -5.14507e+01  5.89147e+01 -5.78168e+01
       E -1.13562e+01  3.92361e+00 -4.08633e+01
       E  1.81880e+01  3.57536e+01  2.51532e+01
3
# CELL(abcABC): 1322.94304  1322.94304  1322.94304    90.00000    90.00000    90.00000  Step:        1600  Bead:      28 positions{angstrom}  cell{angstrom}
       E -2.04678e+01  5.87950e+01 -8.75474e+01
       E -4.11498e+00  5.67073e+00  3.00459e+00
       E -1.09202e+01  2.15958e+01  1.39460e+01
3
# CELL(abcABC): 1322.94304  1322.94304  1322.94304    90.00000    90.00000    90.00000  Step:        1700  Bead:      28 positions{angstrom}  cell{angstrom}
       E -5.02111e+01  3.69297e+01 -1.85335e+01
       E -3.39605e+01 -1.70305e+01  1.47708e+01
       E -2.36167e+01  3.37449e+01  4.62179e+00
3
# CELL(abcABC): 1322.94304  1322.94304  1322.94304    90.00000    90.00000    90.00000  Step:        1800  Bead:      28 positions{angstrom}  cell{angstrom}
       E -3.02669e+01  2.57072e+01  2.79353e+01
       E -6.89051e+01  1.14003e+01 -1.40757e+01
       E -4.55038e+01  3.45646e+01 -1.97940e+01
3
# CELL(abcABC): 1322.94304  1322.94304  1322.94304    90.00000    90.00000    90.00000  Step:        1900  Bead:      28 positions{angstrom}  cell{angstrom}
       E -4.92794e+01  3.22837e+01  3.23934e+00
       E -5.25208e+01  6.44822e+00 -6.79373e+00
       E -4.98740e+01  3.59272e+01  3.54293e+01
3
# CELL(abcABC): 1322.94304  1322.94304  1322.94304    90.00000    90.00000    90.00000  Step:        2000  Bead:      28 positions{angstrom}  cell{angstrom}
       E -3.50262e+01 -8.43320e+00  4.64580e+01
       E -3.39876e+01 -2.25966e+00 -1.44366e+00
       E -6.83258e+01  6.28526e+01 -1.12323e+00
3
# CELL(abcABC): 1322.94304  1322.94304  1322.94304    90.00000    90.00000    90.00000  Step:        2100  Bead:      28 positions{angstrom}  cell{angstrom}
       E -2.27870e+01 -2.94282e+01  1.17967e+01
       E -2.65796e+01 -1.30487e+01  1.98341e+01
       E -2.75409e+01  4.01081e+01 -3.86255e+01
3
# CELL(abcABC): 1322.94304  1322.94304  1322.94304    90.00000    90.00000    90.00000  Step:        2200  Bead:      28 positions{angstrom}  cell{angstrom}
       E -5.93693e+01 -7.35021e+00 -1.98060e+00
       E -2.94597e+01  2.38775e+01  1.34809e+01
       E -1.36337e+01  6.50182e+00 -2.67326e+01
3
# CELL(abcABC): 1322.94304  1322.94304  1322.94304    90.00000    90.00000    90.00000  Step:        2300  Bead:      28 positions{angstrom}  cell{angstrom}
       E -3.88462e+01 -2.21240e+00  3.43739e+01
       E -1.68016e+01  9.86841e+00  2.96384e+00
       E -1.77777e+01 -1.68995e+01 -6.14994e+01
3
# CELL(abcABC): 1322.94304  1322.94304  1322.94304    90.00000    90.00000    90.00000  Step:        2400  Bead:      28 positions{angstrom}  cell{angstrom}
       E -6.48978e+01  6.48775e+00  3.68009e+01
       E -3.15828e+01  8.64824e+00 -1.18134e+01
       E  1.50978e+01 -1.34613e+01 -4.64275e+01
3
# CELL(abcABC): 1322.94304  1322.94304  1322.94304    90.00000    90.00000    90.00000  Step:        2500  Bead:      28 positions{angstrom}  cell{angstrom}
       E -5.01686e+01 -2.40496e+01  3.78793e+01
       E -4.66839e+01 -5.48729e+01 -3.09122e+01
       E  4.55217e+01 -2.73033e+01  4.12490e+01
3
# CELL(abcABC): 1322.94304  1322.94304  1322.94304    90.00000    90.00000    90.00000  Step:        2600  Bead:      28 positions{angstrom}  cell{angstrom}
       E -7.51348e+01 -1.09300e+00  6.63001e+01
       E -3.27193e+01 -4.91715e+01 -1.36352e+01
       E  3.51426e+01 -3.83474e+00  5.86944e+01
3
# CELL(abcABC): 1322.94304  1322.94304  1322.94304    90.00000    90.00000    90.00000  Step:        2700  Bead:      28 positions{angstrom}  cell{angstrom}
       E -4.61399e+01 -8.00263e+01  1.03468e+02
       E -6.94443e+01 -4.90692e+01 -1.19305e+01
       E  2.73565e+01 -3.29777e+01  8.31821e+01
3
# CELL(abcABC): 1322.94304  1322.94304  1322.94304    90.00000    90.00000    90.00000  Step:        2800  Bead:      28 positions{angstrom}  cell{angstrom}
       E -5.01145e+01 -3.56201e+01  5.67359e+01
       E -4.52665e+01 -2.51350e+01 -9.32146e-01
       E  2.88495e+01 -2.71870e+01  4.49893e+01
3
# CELL(abcABC): 1322.94304  1322.94304  1322.94304    90.00000    90.00000    90.00000  Step:        2900  Bead:      28 positions{angstrom}  cell{angstrom}
       E -4.79024e+01 -4.89436e+01  5.26084e+01
       E -4.23133e+01 -3.52054e+01  1.06398e+01
       E  3.15712e+01 -7.60116e+01  5.45923e+01
3
# CELL(abcABC): 1322.94304  1322.94304  1322.94304    90.00000    90.00000    90.00000  Step:        3000  Bead:      28 positions{angstrom}  cell{angstrom}
       E -5.17809e+01 -3.78613e+01  4.32963e+01
       E -5.20856e+01 -4.31691e+01  2.89899e+01
       E  1.98885e+01 -1.95685e+01 -4.63184e+00
3
# CELL(abcABC): 1322.94304  1322.94304  1322.94304    90.00000    90.00000    90.00000  Step:        3100  Bead:      28 positions{angstrom}  cell{angstrom}
       E -4.41983e+01 -6.34348e+01  2.00160e+01
       E -5.30984e+01 -6.76177e+01  6.26544e+01
       E  1.76432e+01  2.60807e+01 -1.65976e+00
3
# CELL(abcABC): 1322.94304  1322.94304  1322.94304    90.00000    90.00000    90.00000  Step:        3200  Bead:      28 positions{angstrom}  cell{angstrom}
       E -5.53206e+01 -5.46565e+01  3.38398e+01
       E -5.92918e+01 -2.55484e+01  4.56105e+01
       E  8.00273e+00  3.07249e+01  1.19794e+01
3
# CELL(abcABC): 1322.94304  1322.94304  1322.94304    90.00000    90.00000    90.00000  Step:        3300  Bead:      28 positions{angstrom}  cell{angstrom}
       E -4.96821e+01  4.61866e+01  6.19914e+01
       E -1.02805e+02 -5.27534e+00  5.85488e+01
       E  1.66125e+01  7.32331e+01  2.41325e+01
3
# CELL(abcABC): 1322.94304  1322.94304  1322.94304    90.00000    90.00000    90.00000  Step:        3400  Bead:      28 positions{angstrom}  cell{angstrom}
       E -9.03921e+01  4.80272e+01  8.67589e+01
       E -6.57079e+01 -4.42783e+01  3.79144e+01
       E  1.02207e+01  5.11445e+01  3.95073e+01
3
# CELL(abcABC): 1322.94304  1322.94304  1322.94304    90.00000    90.00000    90.00000  Step:        3500  Bead:      28 positions{angstrom}  cell{angstrom}
       E -6.45754e+01  8.01992e+00  7.19547e+01
       E -5.98936e+01 -5.93244e+01  5.15052e+01
       E -1.21548e+01  3.66510e+01  2.42585e+01
3
# CELL(abcABC): 1322.94304  1322.94304  1322.94304    90.00000    90.00000    90.00000  Step:        3600  Bead:      28 positions{angstrom}  cell{angstrom}
       E -6.99711e+01 -5.03645e+01  4.22405e+01
       E -1.42784e+01 -3.08399e+01  5.98281e+01
       E -7.56207e+01  5.85509e+00 -9.09065e+00
3
# CELL(abcABC): 1322.94304  1322.94304  1322.94304    90.00000    90.00000    90.00000  Step:        3700  Bead:      28 positions{angstrom}  cell{angstrom}
       E -8.36581e+01 -4.05421e+01  3.35566e+01
       E -4.07148e+00 -4.12767e+01  2.96830e+00
       E -8.40860e+01 -2.64993e+01 -1.62456e+00
3
# CELL(abcABC): 1322.94304  1322.94304  1322.94304    90.00000    90.00000    90.00000  Step:        3800  Bead:      28 positions{angstrom}  cell{angstrom}
       E -6.33582e+01 -1.18020e+01  3.96655e+01
       E  1.90768e+01 -5.19734e+01  4.09655e+00
       E -7.18390e+00 -3.23208e+01 -6.25407e+00
3
# CELL(abcABC): 1322.94304  1322.94304  1322.94304    90.00000    90.00000    90.00000  Step:        3900  Bead:      28 positions{angstrom}  cell{angstrom}
       E -5.92865e+01 -2.19475e+01  9.93940e-01
       E -3.87561e+01 -4.26850e+01 -4.82688e+00
       E -1.52962e+01 -1.73441e+01  2.01458e+01
3
# CELL(abcABC): 1322.94304  1322.94304  1322.94304    90.00000    90.00000    90.00000  Step:        4000  Bead:      28 positions{angstrom}  cell{angstrom}
       E -6.36070e+01 -3.12307e+01  1.90228e+01
       E -2.56991e+01 -2.13758e+01  6.34448e+00
       E -3.10409e+01 -1.67503e+01 -2.97066e+01
3
# CELL(abcABC): 1322.94304  1322.94304  1322.94304    90.00000    90.00000    90.00000  Step:        4100  Bead:      28 positions{angstrom}  cell{angstrom}
       E -6.51089e+01 -2.99976e+01 -6.99844e+01
       E -6.97602e+01  3.20693e+00  3.43528e+00
       E -5.19130e+01 -1.03537e+01  9.20717e+00
3
# CELL(abcABC): 1322.94304  1322.94304  1322.94304    90.00000    90.00000    90.00000  Step:        4200  Bead:      28 positions{angstrom}  cell{angstrom}
       E -5.30247e+01  8.97779e+00 -8.44922e+01
       E -4.20021e+01  1.48026e+01 -3.02853e+01
       E -4.60356e+01 -1.81089e+01 -8.62663e+00
3
# CELL(abcABC): 1322.94304  1322.94304  1322.94304    90.00000    90.00000    90.00000  Step:        4300  Bead:      28 positions{angstrom}  cell{angstrom}
       E -2.77876e+01 -5.74116e+00 -8.37665e+01
       E -2.42786e+01  4.85332e+01 -2.71896e+01
       E  1.45936e+00 -5.27312e+00 -2.50384e+01
3
# CELL(abcABC): 1322.94304  1322.94304  1322.94304    90.00000    90.00000    90.00000  Step:        4400  Bead:      28 positions{angstrom}  cell{angstrom}
       E  7.87309e+00  1.64105e+01 -7.57975e+01
       E -6.08734e+01  5.26072e+01 -4.80813e+00
       E -5.84354e-01 -1.87875e+01  2.44506e+01
3
# CELL(abcABC): 1322.94304  1322.94304  1322.94304    90.00000    90.00000    90.00000  Step:        4500  Bead:      28 positions{angstrom}  cell{angstrom}
       E -4.78713e+01  1.10705e+01 -8.95899e+01
       E -6.25357e+01  4.35766e+01  1.19726e+01
       E  8.27136e+00 -5.97354e+01  5.55325e+00
3
# CELL(abcABC): 1322.94304  1322.94304  1322.94304    90.00000    90.00000    90.00000  Step:        4600  Bead:      28 positions{angstrom}  cell{angstrom}
       E -4.49275e+01  1.91862e+01 -4.57972e+01
       E -6.10335e+01  7.81781e+01  1.33311e+01
       E -5.73674e+00 -2.40803e+01  2.50143e+01
3
# CELL(abcABC): 1322.94304  1322.94304  1322.94304    90.00000    90.00000    90.00000  Step:        4700  Bead:      28 positions{angstrom}  cell{angstrom}
       E -3.27566e+01  2.08316e+01 -7.19508e+01
       E -3.87415e+01  2.62716e+01 -8.13553e+00
       E -8.63392e+00 -6.23645e+01  1.51757e+01
3
# CELL(abcABC): 1322.94304  1322.94304  1322.94304    90.00000    90.00000    90.00000  Step:        4800  Bead:      28 positions{angstrom}  cell{angstrom}
       E -5.09766e+00  6.52486e+01 -1.05061e+02
       E -4.70299e+01 -1.30455e+00 -2.00974e+01
       E -2.50827e+01 -5.10628e+01  2.70738e+01
3
# CELL(abcABC): 1322.94304  1322.94304  1322.94304    90.00000    90.00000    90.00000  Step:        4900  Bead:      28 positions{angstrom}  cell{angstrom}
       E  2.56868e+01  5.45271e+01 -4.78751e+01
       E -6.00177e+01 -7.95214e-01 -5.43496e+01
       E  1.85165e+01 -6.85575e+01  7.29696e+00
3
# CELL(abcABC): 1322.94304  1322.94304  1322.94304    90.00000    90.00000    90.00000  Step:        5000  Bead:      28 positions{angstrom}  cell{angstrom}
       E  8.06964e+01  4.08062e+01 -3.84534e+01
       E -5.83404e+01 -1.34988e+01 -2.44090e+01
       E  1.53094e+01 -4.70549e+01 -2.53654e+01
3
# CELL(abcABC): 1322.94304  1322.94304  1322.94304    90.00000    90.00000    90.00000  Step:        5100  Bead:      28 positions{angstrom}  cell{angstrom}
       E  7.35625e+01  5.28660e+01  1.24425e+01
       E -4.68389e+01  4.05274e+00 -3.02425e+00
       E  1.89852e+01 -1.37027e+01 -4.46819e+00
3
# CELL(abcABC): 1322.94304  1322.94304  1322.94304    90.00000    90.00000    90.00000  Step:        5200  Bead:      28 positions{angstrom}  cell{angstrom}
       E  2.34473e+01 -5.99097e+00 -8.30014e-01
       E -4.93531e+01  2.43959e+01 -1.07913e+01
       E -3.98511e+00  8.69137e+00 -4.06128e+01
3
# CELL(abcABC): 1322.94304  1322.94304  1322.94304    90.00000    90.00000    90.00000  Step:        5300  Bead:      28 positions{angstrom}  cell{angstrom}
       E  5.42843e+01 -2.52391e+01 -2.09131e+01
       E -4.10507e+01  1.19702e+01 -2.25803e+01
       E -3.53237e+01  3.19922e+01  4.49519e+01
3
# CELL(abcABC): 1322.94304  1322.94304  1322.94304    90.00000    90.00000    90.00000  Step:        5400  Bead:      28 positions{angstrom}  cell{angstrom}
       E  2.87288e+01  6.55679e-01 -3.66827e-01
       E -4.56643e+01  3.05983e+01 -2.70661e+01
       E -1.53138e+01  3.06746e+01  2.69281e+01
3
# CELL(abcABC): 1322.94304  1322.94304  1322.94304    90.00000    90.00000    90.00000  Step:        5500  Bead:      28 positions{angstrom}  cell{angstrom}
       E  1.57033e+01  3.08001e+01  8.65746e+00
       E -4.01625e-03 -2.46814e+00 -2.43237e+00
       E  9.35421e-01  5.38330e+01 -2.73838e+01
3
# CELL(abcABC): 1322.94304  1322.94304  1322.94304    90.00000    90.00000    90.00000  Step:        5600  Bead:      28 positions{angstrom}  cell{angstrom}
       E  2.27874e+01  1.60632e+01 -2.01848e+01
       E -2.44741e+01  2.51242e-01 -4.28575e+00
       E -3.93965e-01 -3.78716e+00 -7.75680e+00
3
# CELL(abcABC): 1322.94304  1322.94304  1322.94304    90.00000    90.00000    90.00000  Step:        5700  Bead:      28 positions{angstrom}  cell{angstrom}
       E  1.55501e+01  2.04331e+01 -2.56557e+01
       E  9.35273e+00  2.64297e+01 -3.67519e+00
       E -2.96748e+01 -1.03200e+01  3.41469e+01
3
# CELL(abcABC): 1322.94304  1322.94304  1322.94304    90.00000    90.00000    90.00000  Step:        5800  Bead:      28 positions{angstrom}  cell{angstrom}
       E  1.07865e+01 -1.68047e+00 -3.24766e+01
       E -2.26727e+00 -8.11172e-02 -2.78331e+01
       E  1.47953e+00 -5.27703e+01 -2.39910e+01
3
# CELL(abcABC): 1322.94304  1322.94304  1322.94304    90.00000    90.00000    90.00000  Step:        5900  Bead:      28 positions{angstrom}  cell{angstrom}
       E -7.39059e+00  1.00224e+01  2.24678e+00
       E  1.42604e+00  4.49801e+01 -2.74295e+01
       E -4.49215e+00 -5.22439e+01  1.01162e+01
3
# CELL(abcABC): 1322.94304  1322.94304  1322.94304    90.00000    90.00000    90.00000  Step:        6000  Bead:      28 positions{angstrom}  cell{angstrom}
       E  8.37970e+00 -2.18749e+01 -9.21422e+00
       E -3.73286e+00  1.48754e+01 -4.39134e+01
       E  1.08165e+01 -4.32347e+01 -1.71139e+01
3
# CELL(abcABC): 1322.94304  1322.94304  1322.94304    90.00000    90.00000    90.00000  Step:        6100  Bead:      28 positions{angstrom}  cell{angstrom}
       E  8.76475e+00 -6.10258e+01 -3.15611e+01
       E  2.90226e+01 -3.79601e+01 -5.52366e+01
       E  3.14983e+01 -3.41294e+01  5.36701e+00
3
# CELL(abcABC): 1322.94304  1322.94304  1322.94304    90.00000    90.00000    90.00000  Step:        6200  Bead:      28 positions{angstrom}  cell{angstrom}
       E  2.05074e+01 -5.89410e+01 -6.18024e+01
       E  4.80857e+01 -7.16626e+00 -1.51499e+01
       E -1.45648e+01 -5.45414e+01  3.00056e+01
3
# CELL(abcABC): 1322.94304  1322.94304  1322.94304    90.00000    90.00000    90.00000  Step:        6300  Bead:      28 positions{angstrom}  cell{angstrom}
       E  2.82646e+01 -7.45239e+01 -1.07881e+02
       E  7.13280e+01 -2.15573e+01 -5.98610e+00
       E -1.08801e+01 -5.63847e+01  1.08132e+01
3
# CELL(abcABC): 1322.94304  1322.94304  1322.94304    90.00000    90.00000    90.00000  Step:        6400  Bead:      28 positions{angstrom}  cell{angstrom}
       E  4.30741e+01 -8.65105e+01 -1.26532e+02
       E  3.54590e+01 -4.64873e+01 -3.23308e+01
       E  2.74651e+00 -2.72054e+01  3.27828e+01
3
# CELL(abcABC): 1322.94304  1322.94304  1322.94304    90.00000    90.00000    90.00000  Step:        6500  Bead:      28 positions{angstrom}  cell{angstrom}
       E  3.73142e+01 -1.12053e+02 -1.23465e+02
       E  4.69606e+00  2.15478e+01 -4.17355e+01
       E -1.52197e+01  1.45671e+01 -1.11666e+01
3
# CELL(abcABC): 1322.94304  1322.94304  1322.94304    90.00000    90.00000    90.00000  Step:        6600  Bead:      28 positions{angstrom}  cell{angstrom}
       E  2.45433e+01 -1.09355e+02 -1.20329e+02
       E  2.42932e+01 -6.86873e+00 -3.39950e+01
       E -4.69594e+00 -2.09713e+01  1.23360e+01
3
# CELL(abcABC): 1322.94304  1322.94304  1322.94304    90.00000    90.00000    90.00000  Step:        6700  Bead:      28 positions{angstrom}  cell{angstrom}
       E  4.74016e+01 -9.39326e+01 -1.18418e+02
       E  4.59855e+01  2.42126e+00 -3.91151e+01
       E -2.93981e+01 -2.24677e+01  1.34953e+01
3
# CELL(abcABC): 1322.94304  1322.94304  1322.94304    90.00000    90.00000    90.00000  Step:        6800  Bead:      28 positions{angstrom}  cell{angstrom}
       E  3.43272e+01 -1.13326e+02 -1.04996e+02
       E  2.11234e+01 -2.11357e+00 -1.93834e+01
       E -1.20472e+01 -4.31238e+01  4.47037e+01
3
# CELL(abcABC): 1322.94304  1322.94304  1322.94304    90.00000    90.00000    90.00000  Step:        6900  Bead:      28 positions{angstrom}  cell{angstrom}
       E  2.08487e+01 -9.65849e+01 -4.84353e+01
       E  2.84102e+01 -2.81835e+01 -2.37543e+01
       E  1.24204e+01 -1.61710e+01  1.96476e+01
3
# CELL(abcABC): 1322.94304  1322.94304  1322.94304    90.00000    90.00000    90.00000  Step:        7000  Bead:      28 positions{angstrom}  cell{angstrom}
       E  4.22896e+01 -4.87611e+01 -4.62860e+01
       E  3.49009e+01  3.49363e+01 -3.05797e+01
       E -2.34721e+00  9.49746e-01  5.49328e+00
3
# CELL(abcABC): 1322.94304  1322.94304  1322.94304    90.00000    90.00000    90.00000  Step:        7100  Bead:      28 positions{angstrom}  cell{angstrom}
       E -2.65347e+01 -1.27571e+01 -3.94941e+01
       E  1.23624e+01  8.01993e+01  1.86226e+01
       E  4.85895e+01 -2.80361e+00 -1.75161e+01
3
# CELL(abcABC): 1322.94304  1322.94304  1322.94304    90.00000    90.00000    90.00000  Step:        7200  Bead:      28 positions{angstrom}  cell{angstrom}
       E -2.16021e+01 -1.63076e+01 -6.51798e+01
       E -1.17533e+01  1.97473e+01  1.90209e+01
       E  2.28697e+01  3.64290e+01 -1.48301e+01
3
# CELL(abcABC): 1322.94304  1322.94304  1322.94304    90.00000    90.00000    90.00000  Step:        7300  Bead:      28 positions{angstrom}  cell{angstrom}
       E  3.38414e+01 -3.18266e+00 -5.51159e+01
       E -5.02691e+01  6.99000e+00  1.50792e+00
       E  3.00246e+01  5.14679e+01 -1.39464e+01
3
# CELL(abcABC): 1322.94304  1322.94304  1322.94304    90.00000    90.00000    90.00000  Step:        7400  Bead:      28 positions{angstrom}  cell{angstrom}
       E -1.32160e-01 -7.22049e+00 -3.93707e+01
       E -1.41243e+01  5.63854e+00 -1.06992e+01
       E  7.27934e+01  3.24896e+01 -1.98993e+01
3
# CELL(abcABC): 1322.94304  1322.94304  1322.94304    90.00000    90.00000    90.00000  Step:        7500  Bead:      28 positions{angstrom}  cell{angstrom}
       E -1.18561e+01 -4.87226e+01 -2.19792e+01
       E -4.93741e-01 -7.88206e+00  2.10632e+01
       E  4.07782e+01  5.42016e+01 -3.26894e+00
3
# CELL(abcABC): 1322.94304  1322.94304  1322.94304    90.00000    90.00000    90.00000  Step:        7600  Bead:      28 positions{angstrom}  cell{angstrom}
       E -8.29810e+00 -6.10221e+01 -4.46682e+01
       E -7.04471e+01 -1.87549e+01  2.02884e+01
       E  4.72674e+01  5.09918e+01 -3.77617e+01
3
# CELL(abcABC): 1322.94304  1322.94304  1322.94304    90.00000    90.00000    90.00000  Step:        7700  Bead:      28 positions{angstrom}  cell{angstrom}
       E -3.39033e+00 -5.65839e+01 -6.99978e+01
       E  1.87259e+00 -5.30363e+01 -3.97008e+00
       E  5.91757e+01  2.98330e+01 -4.10086e+01
3
# CELL(abcABC): 1322.94304  1322.94304  1322.94304    90.00000    90.00000    90.00000  Step:        7800  Bead:      28 positions{angstrom}  cell{angstrom}
       E -5.78099e+00 -5.96405e+01 -2.33557e+01
       E  2.20581e+01 -5.59239e+01 -4.47248e+01
       E  6.95063e+01  4.16844e-01 -2.94019e+01
3
# CELL(abcABC): 1322.94304  1322.94304  1322.94304    90.00000    90.00000    90.00000  Step:        7900  Bead:      28 positions{angstrom}  cell{angstrom}
       E  1.43968e+01 -1.04774e+01 -2.38076e+01
       E  1.55662e+01 -4.94255e+01 -4.02665e+01
       E  7.13918e+01  2.58895e+01 -6.91822e+01
3
# CELL(abcABC): 1322.94304  1322.94304  1322.94304    90.00000    90.00000    90.00000  Step:        8000  Bead:      28 positions{angstrom}  cell{angstrom}
       E  2.57861e+01  8.76106e+00 -4.81569e+01
       E -1.34006e-01 -3.03869e+01 -9.59282e+01
       E  5.15006e+01 -2.29790e+00 -9.83702e+00
3
# CELL(abcABC): 1322.94304  1322.94304  1322.94304    90.00000    90.00000    90.00000  Step:        8100  Bead:      28 positions{angstrom}  cell{angstrom}
       E  1.93032e+01  4.28378e+01 -2.20422e+01
       E -2.76924e+01 -6.72605e+00 -6.01127e+01
       E  2.02846e+01 -1.95865e+01  1.55747e-01
3
# CELL(abcABC): 1322.94304  1322.94304  1322.94304    90.00000    90.00000    90.00000  Step:        8200  Bead:      28 positions{angstrom}  cell{angstrom}
       E  2.04971e+01  6.09950e+01  4.80801e+01
       E  1.36593e+01  4.03189e+01 -1.25612e+01
       E -2.28189e+01  1.11301e+01  8.80744e-01
3
# CELL(abcABC): 1322.94304  1322.94304  1322.94304    90.00000    90.00000    90.00000  Step:        8300  Bead:      28 positions{angstrom}  cell{angstrom}
       E  3.61911e+01  6.79927e+01 -1.25716e+01
       E  1.31500e+01  6.75677e+00 -1.31769e+01
       E  2.05866e+01 -4.23478e+01  1.03009e+01
3
# CELL(abcABC): 1322.94304  1322.94304  1322.94304    90.00000    90.00000    90.00000  Step:        8400  Bead:      28 positions{angstrom}  cell{angstrom}
       E  2.60099e+01 -1.50585e+01  1.06752e+01
       E  4.51503e+00  2.32334e+01  2.34280e+01
       E -1.57265e+01 -3.01482e+01  5.59598e+01
3
# CELL(abcABC): 1322.94304  1322.94304  1322.94304    90.00000    90.00000    90.00000  Step:        8500  Bead:      28 positions{angstrom}  cell{angstrom}
       E  1.52919e+01  9.56624e+00 -3.05715e+01
       E  3.21193e-01  4.79161e+00 -2.03208e+00
       E  2.12759e+01 -3.64620e+01  3.74807e+01
3
# CELL(abcABC): 1322.94304  1322.94304  1322.94304    90.00000    90.00000    90.00000  Step:        8600  Bead:      28 positions{angstrom}  cell{angstrom}
       E -1.82118e+01 -4.69952e+00 -3.86128e+01
       E  1.49939e+01 -2.18397e-01  2.07567e+01
       E  6.60996e+01  2.68235e+01  3.01366e+01
3
# CELL(abcABC): 1322.94304  1322.94304  1322.94304    90.00000    90.00000    90.00000  Step:        8700  Bead:      28 positions{angstrom}  cell{angstrom}
       E -5.42170e+01  2.05754e+01 -5.96995e+00
       E  2.94819e+01 -5.24480e+00  2.39290e+01
       E  7.59149e+01 -1.09675e+01  2.32060e+01
3
# CELL(abcABC): 1322.94304  1322.94304  1322.94304    90.00000    90.00000    90.00000  Step:        8800  Bead:      28 positions{angstrom}  cell{angstrom}
       E -3.69886e+01  4.05064e+00 -2.58996e+01
       E -3.53885e+00 -3.09000e+01  4.65103e+01
       E  3.41427e+01 -5.79484e+01  2.59227e+01
3
# CELL(abcABC): 1322.94304  1322.94304  1322.94304    90.00000    90.00000    90.00000  Step:        8900  Bead:      28 positions{angstrom}  cell{angstrom}
       E -4.58745e+01  5.32305e+01  2.43677e+01
       E -2.11849e+01 -4.38016e+01  3.12876e+01
       E  2.22408e+01 -6.68745e+01 -6.46182e+00
3
# CELL(abcABC): 1322.94304  1322.94304  1322.94304    90.00000    90.00000    90.00000  Step:        9000  Bead:      28 positions{angstrom}  cell{angstrom}
       E -1.15378e+01  3.61248e+01  2.54396e+01
       E -2.65402e+01 -5.76883e+01  5.33583e+01
       E  1.05754e+01 -4.61384e+01 -7.83011e+00
3
# CELL(abcABC): 1322.94304  1322.94304  1322.94304    90.00000    90.00000    90.00000  Step:        9100  Bead:      28 positions{angstrom}  cell{angstrom}
       E -4.24035e+00  3.94148e+01  2.61996e+01
       E -3.23810e+01  4.03585e-02  5.13377e+01
       E  3.57692e+01 -8.51915e+01 -6.92924e+00
3
# CELL(abcABC): 1322.94304  1322.94304  1322.94304    90.00000    90.00000    90.00000  Step:        9200  Bead:      28 positions{angstrom}  cell{angstrom}
       E -1.19747e+01  4.20143e+01 -3.47813e+01
       E -2.32593e+01  7.96738e+00  2.88708e+01
       E  4.63228e+01 -4.32003e+01  5.15797e+00
3
# CELL(abcABC): 1322.94304  1322.94304  1322.94304    90.00000    90.00000    90.00000  Step:        9300  Bead:      28 positions{angstrom}  cell{angstrom}
       E  4.91606e+01  5.81348e+00 -5.09070e+01
       E  7.44697e-01 -3.70125e+01  6.17107e+01
       E  4.65782e+01 -1.23025e+01 -2.01347e+00
3
# CELL(abcABC): 1322.94304  1322.94304  1322.94304    90.00000    90.00000    90.00000  Step:        9400  Bead:      28 positions{angstrom}  cell{angstrom}
       E  6.28003e+01  4.34806e+01 -4.90087e+01
       E -1.41320e+01 -4.02696e+01  5.05617e+01
       E  4.26540e+01  1.70291e-01 -1.53778e+01
3
# CELL(abcABC): 1322.94304  1322.94304  1322.94304    90.00000    90.00000    90.00000  Step:        9500  Bead:      28 positions{angstrom}  cell{angstrom}
       E  3.82215e+01  7.49364e+00 -3.49010e+01
       E  2.56578e+01 -2.81175e+01  2.22405e+00
       E  8.64475e+00  2.55502e+00 -3.48941e+01
3
# CELL(abcABC): 1322.94304  1322.94304  1322.94304    90.00000    90.00000    90.00000  Step:        9600  Bead:      28 positions{angstrom}  cell{angstrom}
       E  7.26088e+00 -2.62360e+01 -6.12278e+01
       E  4.41507e+01 -3.36129e+01  8.60477e+00
       E  1.19434e+01 -8.98235e+00 -2.03697e+00
3
# CELL(abcABC): 1322.94304  1322.94304  1322.94304    90.00000    90.00000    90.00000  Step:        9700  Bead:      28 positions{angstrom}  cell{angstrom}
       E -1.95521e+01 -5.02153e+01 -6.76848e+01
       E  6.17749e+01 -7.22697e+01 -3.05048e+01
       E -4.25362e+01 -2.41206e+00 -8.94121e+00
3
# CELL(abcABC): 1322.94304  1322.94304  1322.94304    90.00000    90.00000    90.00000  Step:        9800  Bead:      28 positions{angstrom}  cell{angstrom}
       E -2.82955e+01 -4.91000e+01 -4.95391e+01
       E  2.94312e+01 -5.16549e+01 -9.54717e+00
       E -4.40170e+01 -1.59289e+01 -1.21355e+01
3