3
# CELL(abcABC): 1322.94304  1322.94304  1322.94304    90.00000    90.00000    90.00000  Step:           0  Bead:      17 positions{angstrom}  cell{angstrom}
       E  0.00000e+00  0.00000e+00  0.00000e+00
       E  0.00000e+00  0.00000e+00  0.00000e+00
       E  0.00000e+00  0.00000e+00  0.00000e+00
3
# CELL(abcABC): 1322.94304  1322.94304  1322.94304    90.00000    90.00000    90.00000  Step:         100  Bead:      17 positions{angstrom}  cell{angstrom}
       E  1.88565e+01 -1.65569e+01 -2.04114e+01
       E -1.40803e+00 -2.78384e+01 -4.56271e+00
       E -2.24839e+01  1.16305e+01 -2.71545e+01
3
# CELL(abcABC): 1322.94304  1322.94304  1322.94304    90.00000    90.00000    90.00000  Step:         200  Bead:      17 positions{angstrom}  cell{angstrom}
       E  1.57148e+01  1.03256e+01  8.56016e+00
       E  1.10971e+01 -3.93029e+01 -1.29129e+01
       E -9.28059e+00  1.46705e+01 -2.46663e+01
3
# CELL(abcABC): 1322.94304  1322.94304  1322.94304    90.00000    90.00000    90.00000  Step:         300  Bead:      17 positions{angstrom}  cell{angstrom}
       E -7.94120e+00 -9.70372e+00  1.46899e+01
       E  8.33757e+00 -6.32461e+00 -2.20593e+01
       E -3.35676e+01  3.24192e+01 -6.27438e+00
3
# CELL(abcABC): 1322.94304  1322.94304  1322.94304    90.00000    90.00000    90.00000  Step:         400  Bead:      17 positions{angstrom}  cell{angstrom}
       E -2.04256e+01  4.86711e+01  1.90519e+01
       E  5.09755e+01 -1.63942e+00  3.27864e-01
       E -1.85667e+01  1.90593e+01  2.27047e+00
3
# CELL(abcABC): 1322.94304  1322.94304  1322.94304    90.00000    90.00000    90.00000  Step:         500  Bead:      17 positions{angstrom}  cell{angstrom}
       E -4.69482e+01  1.92343e+01  5.76880e+00
       E  4.95187e+01 -1.45085e+00 -1.36421e+01
       E  5.46289e-01 -1.55586e+01  2.28652e+01
3
# CELL(abcABC): 1322.94304  1322.94304  1322.94304    90.00000    90.00000    90.00000  Step:         600  Bead:      17 positions{angstrom}  cell{angstrom}
       E -2.14848e+01 -2.16000e+01 -7.03709e+00
       E  2.72308e+01  9.36479e+00 -4.47992e+00
       E -9.20085e+00 -1.78908e+01  2.28021e+01
3
# CELL(abcABC): 1322.94304  1322.94304  1322.94304    90.00000    90.00000    90.00000  Step:         700  Bead:      17 positions{angstrom}  cell{angstrom}
       E -1.50995e+01  1.25622e+01  1.31466e+01
       E  5.48383e+01  3.34636e+01 -2.57532e+00
       E  1.39567e+00 -3.47933e+01  6.36733e+00
3
# CELL(abcABC): 1322.94304  1322.94304  1322.94304    90.00000    90.00000    90.00000  Step:         800  Bead:      17 positions{angstrom}  cell{angstrom}
       E -1.11861e+01  1.64793e+01  1.15121e+01
       E  3.16874e+01  1.68190e+01  1.89794e+01
       E -4.64682e+01 -3.34426e+01  7.44792e+01
3
# CELL(abcABC): 1322.94304  1322.94304  1322.94304    90.00000    90.00000    90.00000  Step:         900  Bead:      17 positions{angstrom}  cell{angstrom}
       E -1.90973e+01  3.84469e+01 -2.57553e+01
       E  3.24205e+01  1.91330e+01 -1.71640e+01
       E -5.17012e+01 -2.01350e+01  5.68614e+01
3
# CELL(abcABC): 1322.94304  1322.94304  1322.94304    90.00000    90.00000    90.00000  Step:        1000  Bead:      17 positions{angstrom}  cell{angstrom}
       E -2.90273e+00  9.58780e+00 -4.23183e+01
       E  1.40615e+01  1.32143e+00 -3.01438e+01
       E -5.43277e+01 -1.20755e+01  6.01220e+01
3
# CELL(abcABC): 1322.94304  1322.94304  1322.94304    90.00000    90.00000    90.00000  Step:        1100  Bead:      17 positions{angstrom}  cell{angstrom}
       E  3.45686e+01 -7.95865e+00 -5.22751e+01
       E  2.39663e+01 -1.14080e+00 -3.99853e+01
       E -3.05737e+01  3.27826e+01  2.85691e+01
3
# CELL(abcABC): 1322.94304  1322.94304  1322.94304    90.00000    90.00000    90.00000  Step:        1200  Bead:      17 positions{angstrom}  cell{angstrom}
       E -1.75940e+01  1.41201e+01 -8.36433e+01
       E  3.64516e+01 -5.70051e+01 -2.29328e+01
       E -5.13499e+00  5.95203e+01  6.84065e+00
3
# CELL(abcABC): 1322.94304  1322.94304  1322.94304    90.00000    90.00000    90.00000  Step:        1300  Bead:      17 positions{angstrom}  cell{angstrom}
       E -2.07457e+01  1.84484e+01 -7.23666e+01
       E  6.40523e+01 -2.97080e+01 -3.81954e+01
       E -8.63027e+00  2.77073e+01 -2.37220e+01
3
# CELL(abcABC): 1322.94304  1322.94304  1322.94304    90.00000    90.00000    90.00000  Step:        1400  Bead:      17 positions{angstrom}  cell{angstrom}
       E -1.47664e+01  4.17018e+01 -6.87512e+01
       E  2.12731e+01 -1.30465e+01 -3.81657e+01
       E  8.71090e+00  1.11108e+01  1.07783e+01
3
# CELL(abcABC): 1322.94304  1322.94304  1322.94304    90.00000    90.00000    90.00000  Step:        1500  Bead:      17 positions{angstrom}  cell{angstrom}
       E  6.70425e+00  4.03022e+01 -3.97189e+01
       E -2.11629e+01  1.27202e+01 -1.66827e+01
       E -1.31112e+01  3.07569e+01  1.03450e+01
3
# CELL(abcABC): 1322.94304  1322.94304  1322.94304    90.00000    90.00000    90.00000  Step:        1600  Bead:      17 positions{angstrom}  cell{angstrom}
       E -1.77528e+01  4.03374e+01 -4.18810e+01
       E -1.19904e+01  3.46777e+01 -1.57344e+01
       E -1.73414e+01  2.60928e+01  1.13343e+01
3
# CELL(abcABC): 1322.94304  1322.94304  1322.94304    90.00000    90.00000    90.00000  Step:        1700  Bead:      17 positions{angstrom}  cell{angstrom}
       E  2.17653e+01  1.96673e+01  3.85501e+01
       E -3.07010e+01  3.64499e+01  3.07545e+01
       E -3.84580e+01  5.74027e+01  2.01798e+01
3
# CELL(abcABC): 1322.94304  1322.94304  1322.94304    90.00000    90.00000    90.00000  Step:        1800  Bead:      17 positions{angstrom}  cell{angstrom}
       E  1.38408e+01  4.41832e+01  4.26045e+01
       E -7.03431e+01  3.47557e+01  1.41262e+01
       E -9.16838e+01  8.95974e+01  3.45665e+01
3
# CELL(abcABC): 1322.94304  1322.94304  1322.94304    90.00000    90.00000    90.00000  Step:        1900  Bead:      17 positions{angstrom}  cell{angstrom}
       E  5.90155e+00  1.25380e+01  5.23089e+01
       E -5.42792e+01  3.57159e+01 -1.08538e+01
       E -8.11098e+01  7.56433e+01  2.15115e+01
3
# CELL(abcABC): 1322.94304  1322.94304  1322.94304    90.00000    90.00000    90.00000  Step:        2000  Bead:      17 positions{angstrom}  cell{angstrom}
       E -5.89298e+00 -1.24573e+01  6.49269e+01
       E -6.79563e+01  3.44781e+01  1.24185e+01
       E -8.78525e+01  8.70748e+01  4.09993e+01
3
# CELL(abcABC): 1322.94304  1322.94304  1322.94304    90.00000    90.00000    90.00000  Step:        2100  Bead:      17 positions{angstrom}  cell{angstrom}
       E -4.43202e+01 -3.05953e+00  4.73875e+01
       E -4.07292e+01  1.58164e+01  1.66098e+01
       E -7.80132e+01  9.68307e+01  2.68950e+01
3
# CELL(abcABC): 1322.94304  1322.94304  1322.94304    90.00000    90.00000    90.00000  Step:        2200  Bead:      17 positions{angstrom}  cell{angstrom}
       E -4.83870e+01 -1.16382e+01  4.76702e+01
       E -1.95060e+01 -4.08997e+01 -1.52918e+01
       E -4.44230e+01  4.01507e+01  1.45772e+01
3
# CELL(abcABC): 1322.94304  1322.94304  1322.94304    90.00000    90.00000    90.00000  Step:        2300  Bead:      17 positions{angstrom}  cell{angstrom}
       E -6.68095e+01 -1.05721e+01  5.54757e+01
       E  4.56688e+00 -2.99459e+01 -5.62521e+00
       E -1.93392e+00  1.38934e+01  3.07348e+01
3
# CELL(abcABC): 1322.94304  1322.94304  1322.94304    90.00000    90.00000    90.00000  Step:        2400  Bead:      17 positions{angstrom}  cell{angstrom}
       E -7.07240e+01 -2.32248e+01  2.42393e+01
       E -2.39452e+00 -2.08860e+01 -6.94485e-01
       E -1.10932e+01 -1.50915e+01  2.36592e+01
3
# CELL(abcABC): 1322.94304  1322.94304  1322.94304    90.00000    90.00000    90.00000  Step:        2500  Bead:      17 positions{angstrom}  cell{angstrom}
       E -3.99037e+01  2.28018e+01  2.06070e+01
       E  1.28596e+01 -6.68569e+01 -6.40118e+01
       E  4.05293e+01 -4.07113e+00  3.08466e+01
3
# CELL(abcABC): 1322.94304  1322.94304  1322.94304    90.00000    90.00000    90.00000  Step:        2600  Bead:      17 positions{angstrom}  cell{angstrom}
       E -3.82855e+01  1.11562e+01  1.72651e+01
       E -4.05576e+01 -5.09863e+01 -6.59700e+01
       E  9.94666e+00 -3.44995e+01  2.38914e+01
3
# CELL(abcABC): 1322.94304  1322.94304  1322.94304    90.00000    90.00000    90.00000  Step:        2700  Bead:      17 positions{angstrom}  cell{angstrom}
       E -2.94552e+01  9.15264e+00  3.05570e+01
       E -5.72604e+01 -3.25521e+01 -1.54337e+01
       E  4.77982e+01 -5.48045e+00  3.93839e+01
3
# CELL(abcABC): 1322.94304  1322.94304  1322.94304    90.00000    90.00000    90.00000  Step:        2800  Bead:      17 positions{angstrom}  cell{angstrom}
       E -2.13523e+01  5.70979e+00  2.39968e+01
       E -7.54315e+01 -6.09835e+01 -4.55422e+01
       E  2.70300e+01 -2.48838e+01  3.20781e+01
3
# CELL(abcABC): 1322.94304  1322.94304  1322.94304    90.00000    90.00000    90.00000  Step:        2900  Bead:      17 positions{angstrom}  cell{angstrom}
       E -5.81011e+01  1.07008e+01  4.93179e+01
       E -7.68732e+01 -5.78164e+01 -3.98718e+01
       E -7.70222e+00 -1.96641e+00  1.65272e+01
3
# CELL(abcABC): 1322.94304  1322.94304  1322.94304    90.00000    90.00000    90.00000  Step:        3000  Bead:      17 positions{angstrom}  cell{angstrom}
       E -3.06036e+01  1.94199e+01  5.32435e+01
       E -6.71102e+01 -6.12190e+01  1.04178e+01
       E  7.24651e+00  2.14345e+01  2.60142e+01
3
# CELL(abcABC): 1322.94304  1322.94304  1322.94304    90.00000    90.00000    90.00000  Step:        3100  Bead:      17 positions{angstrom}  cell{angstrom}
       E -2.62616e+01 -2.83437e-01  4.16999e+01
       E -9.29191e+01 -6.64813e+01 -2.06538e+00
       E  1.34623e+01  3.80826e+01  3.00099e+01
3
# CELL(abcABC): 1322.94304  1322.94304  1322.94304    90.00000    90.00000    90.00000  Step:        3200  Bead:      17 positions{angstrom}  cell{angstrom}
       E -6.21801e+00  3.33539e+01 -1.30833e+01
       E -1.01324e+02 -3.50816e+01  5.52607e+01
       E  3.65613e+01  7.08526e+01  4.71068e+01
3
# CELL(abcABC): 1322.94304  1322.94304  1322.94304    90.00000    90.00000    90.00000  Step:        3300  Bead:      17 positions{angstrom}  cell{angstrom}
       E  1.50855e+01  2.54272e+01  1.62038e+01
       E -7.89283e+01 -6.34605e+01  4.80466e+01
       E -4.31906e+00  7.69927e+01  5.74850e+01
3
# CELL(abcABC): 1322.94304  1322.94304  1322.94304    90.00000    90.00000    90.00000  Step:        3400  Bead:      17 positions{angstrom}  cell{angstrom}
       E -2.59035e+01  1.61951e+01  3.82885e+01
       E -8.88610e+01 -2.32557e+01  5.74830e+01
       E -8.11479e+00  6.83018e+01  3.34037e+01
3
# CELL(abcABC): 1322.94304  1322.94304  1322.94304    90.00000    90.00000    90.00000  Step:        3500  Bead:      17 positions{angstrom}  cell{angstrom}
       E -6.37354e+01  2.03685e+01  3.82608e+01
       E -4.60181e+01 -4.67438e+01  3.06406e+01
       E -2.34858e+01  2.28169e+01  4.80005e+01
3
# CELL(abcABC): 1322.94304  1322.94304  1322.94304    90.00000    90.00000    90.00000  Step:        3600  Bead:      17 positions{angstrom}  cell{angstrom}
       E -5.57712e+01  2.14552e+01  1.86628e+01
       E -3.77447e+00 -2.86577e+01  3.51602e+00
       E -2.27877e+01  9.14208e-01  2.93601e+01
3
# CELL(abcABC): 1322.94304  1322.94304  1322.94304    90.00000    90.00000    90.00000  Step:        3700  Bead:      17 positions{angstrom}  cell{angstrom}
       E -5.74144e+01  1.36777e+01 -2.97300e+01
       E -1.94283e+01 -1.60720e+01  1.90694e+01
       E -5.91168e+01  3.61168e+01 -6.91987e+00
3
# CELL(abcABC): 1322.94304  1322.94304  1322.94304    90.00000    90.00000    90.00000  Step:        3800  Bead:      17 positions{angstrom}  cell{angstrom}
       E -9.35924e+01  6.15882e+00 -3.87953e+01
       E -9.01262e+00 -6.99563e+01 -1.25324e+01
       E -8.10782e+01 -2.35551e+00 -3.23940e+01
3
# CELL(abcABC): 1322.94304  1322.94304  1322.94304    90.00000    90.00000    90.00000  Step:        3900  Bead:      17 positions{angstrom}  cell{angstrom}
       E -1.11762e+02  5.39062e+00 -3.77156e+01
       E -4.59443e+01 -5.32764e+01 -1.95326e+01
       E -3.27640e+01  2.00538e+01 -2.90930e+01
3
# CELL(abcABC): 1322.94304  1322.94304  1322.94304    90.00000    90.00000    90.00000  Step:        4000  Bead:      17 positions{angstrom}  cell{angstrom}
       E -9.05756e+01  3.32412e+01 -2.78833e+01
       E -3.41213e+01 -4.74887e+00  3.08336e+01
       E -2.50200e+01  2.44608e+01  3.15266e+00
3
# CELL(abcABC): 1322.94304  1322.94304  1322.94304    90.00000    90.00000    90.00000  Step:        4100  Bead:      17 positions{angstrom}  cell{angstrom}
       E -3.57555e+01  4.53200e+01 -6.26858e+01
       E -7.17898e+01  3.47023e+01  5.92775e+00
       E -3.99136e+01 -2.23252e+01  1.82030e+01
3
# CELL(abcABC): 1322.94304  1322.94304  1322.94304    90.00000    90.00000    90.00000  Step:        4200  Bead:      17 positions{angstrom}  cell{angstrom}
       E -4.86194e+01 -9.22973e+00 -8.33036e+01
       E -6.98934e+01  3.29706e+01  3.41258e+01
       E -1.59731e+01 -1.11143e+01  6.61703e+01
3
# CELL(abcABC): 1322.94304  1322.94304  1322.94304    90.00000    90.00000    90.00000  Step:        4300  Bead:      17 positions{angstrom}  cell{angstrom}
       E -4.44045e+01  3.62965e+01 -5.74090e+01
       E -3.53496e+01  4.89583e+01  4.15463e+01
       E -6.64809e+00 -3.20299e+01  4.26448e+01
3
# CELL(abcABC): 1322.94304  1322.94304  1322.94304    90.00000    90.00000    90.00000  Step:        4400  Bead:      17 positions{angstrom}  cell{angstrom}
       E -3.59952e+01  5.34917e+00 -4.69490e+01
       E -2.49026e+01  7.75235e+01  4.68285e+00
       E -1.77006e+01 -3.09950e+01  2.63839e+00
3
# CELL(abcABC): 1322.94304  1322.94304  1322.94304    90.00000    90.00000    90.00000  Step:        4500  Bead:      17 positions{angstrom}  cell{angstrom}
       E -3.50107e+01  2.65519e+01 -9.55623e+01
       E -5.60024e+01  8.25617e+01 -1.01197e+01
       E -1.98061e+01 -2.69346e+01  2.05576e+01
3
# CELL(abcABC): 1322.94304  1322.94304  1322.94304    90.00000    90.00000    90.00000  Step:        4600  Bead:      17 positions{angstrom}  cell{angstrom}
       E -7.33739e+00  2.91253e+00 -6.84147e+01
       E -5.41215e+01  1.16682e+02 -2.56576e+01
       E -6.75341e+00  9.94405e+00 -9.24387e+00
3
# CELL(abcABC): 1322.94304  1322.94304  1322.94304    90.00000    90.00000    90.00000  Step:        4700  Bead:      17 positions{angstrom}  cell{angstrom}
       E -2.79395e+01  2.40723e+01 -5.25339e+01
       E -4.67675e+01  6.49731e+01 -2.21024e+01
       E  2.71699e+01 -7.63395e+00 -2.34842e+00
3
# CELL(abcABC): 1322.94304  1322.94304  1322.94304    90.00000    90.00000    90.00000  Step:        4800  Bead:      17 positions{angstrom}  cell{angstrom}
       E -2.41971e+01 -2.85186e+00 -2.98921e+01
       E -2.56631e+01  1.83152e+01 -1.47972e+01
       E  2.14602e+01 -3.07321e+00  2.33749e+01
3
# CELL(abcABC): 1322.94304  1322.94304  1322.94304    90.00000    90.00000    90.00000  Step:        4900  Bead:      17 positions{angstrom}  cell{angstrom}
       E  9.54174e+00  7.29854e+00  1.03546e+01
       E -2.68802e+01  1.87621e+01 -2.56364e+01
       E  2.16139e+01 -1.06136e+01  4.35457e+00
3
# CELL(abcABC): 1322.94304  1322.94304  1322.94304    90.00000    90.00000    90.00000  Step:        5000  Bead:      17 positions{angstrom}  cell{angstrom}
       E  2.12822e+01 -2.73888e+01  1.82400e+01
       E -3.07384e+01 -5.47510e+00 -5.19102e+01
       E  1.38947e+01  4.75494e+00 -1.84780e+01
3
# CELL(abcABC): 1322.94304  1322.94304  1322.94304    90.00000    90.00000    90.00000  Step:        5100  Bead:      17 positions{angstrom}  cell{angstrom}
       E  2.56015e+01  2.28588e+01  2.26255e+01
       E -3.76566e+01  1.67292e+01 -5.31191e+01
       E -1.35945e+01 -1.52466e+01 -3.12974e+01
3
# CELL(abcABC): 1322.94304  1322.94304  1322.94304    90.00000    90.00000    90.00000  Step:        5200  Bead:      17 positions{angstrom}  cell{angstrom}
       E  4.91808e+00  1.77149e+01  2.52332e+01
       E -4.64475e+01  1.82183e+01 -2.95763e+01
       E -2.53723e+01  4.16569e+01 -6.63740e+00
3
# CELL(abcABC): 1322.94304  1322.94304  1322.94304    90.00000    90.00000    90.00000  Step:        5300  Bead:      17 positions{angstrom}  cell{angstrom}
       E -1.84331e+00  5.96301e+00  3.36628e+01
       E -2.91058e+01  4.92506e+01 -3.98003e+00
       E -3.47120e+01  5.81136e+01  1.84661e+01
3
# CELL(abcABC): 1322.94304  1322.94304  1322.94304    90.00000    90.00000    90.00000  Step:        5400  Bead:      17 positions{angstrom}  cell{angstrom}
       E -2.53878e+00 -4.25922e+01  3.07704e+01
       E -3.46753e+00 -7.10570e+00 -1.23517e+01
       E -3.68969e+01  8.74093e+00  3.12256e+01
3
# CELL(abcABC): 1322.94304  1322.94304  1322.94304    90.00000    90.00000    90.00000  Step:        5500  Bead:      17 positions{angstrom}  cell{angstrom}
       E  9.40558e+00  2.24981e+00  6.45979e+00
       E -2.78252e+01 -1.04529e+01 -4.09158e+00
       E -3.32326e+01 -1.46594e+01  5.96954e+01
3
# CELL(abcABC): 1322.94304  1322.94304  1322.94304    90.00000    90.00000    90.00000  Step:        5600  Bead:      17 positions{angstrom}  cell{angstrom}
       E -9.26780e-01 -4.53288e+00 -1.03499e+01
       E -6.85679e+01 -4.52782e+01  9.52150e+00
       E -3.49286e+01 -1.39987e+01  1.88411e+01
3
# CELL(abcABC): 1322.94304  1322.94304  1322.94304    90.00000    90.00000    90.00000  Step:        5700  Bead:      17 positions{angstrom}  cell{angstrom}
       E  7.16290e+00 -5.40267e+01 -2.52974e+01
       E -7.48421e+01  6.42813e+00  9.52863e+00
       E -2.32387e+01 -5.20153e+00  4.67719e+00
3
# CELL(abcABC): 1322.94304  1322.94304  1322.94304    90.00000    90.00000    90.00000  Step:        5800  Bead:      17 positions{angstrom}  cell{angstrom}
       E -3.82686e+00 -1.39161e+01 -1.28838e+01
       E -2.69120e+01  5.29107e+01 -3.25296e+01
       E -4.80833e+01  1.26102e+01 -1.09665e+01
3
# CELL(abcABC): 1322.94304  1322.94304  1322.94304    90.00000    90.00000    90.00000  Step:        5900  Bead:      17 positions{angstrom}  cell{angstrom}
       E  4.17543e+01  1.21777e+01 -2.24752e+01
       E -9.48418e+00  8.20364e-01  1.53947e+01
       E -6.00107e+00 -7.69036e+00 -3.10346e+01
3
# CELL(abcABC): 1322.94304  1322.94304  1322.94304    90.00000    90.00000    90.00000  Step:        6000  Bead:      17 positions{angstrom}  cell{angstrom}
       E  9.38040e+00 -2.82219e+01  2.88144e+01
       E  1.12507e+01  5.85670e+00  1.09701e+01
       E  2.53661e+00 -3.61277e+00  3.83373e+00
3
# CELL(abcABC): 1322.94304  1322.94304  1322.94304    90.00000    90.00000    90.00000  Step:        6100  Bead:      17 positions{angstrom}  cell{angstrom}
       E  3.06173e+00 -3.13742e+01 -3.75898e+01
       E  4.43818e+01  9.70635e+00  2.41741e+01
       E  2.00464e+01  6.44545e+00 -3.18733e+01
3
# CELL(abcABC): 1322.94304  1322.94304  1322.94304    90.00000    90.00000    90.00000  Step:        6200  Bead:      17 positions{angstrom}  cell{angstrom}
       E -4.09823e+00 -1.82478e+01 -7.39509e+01
       E  8.06350e+01  2.97817e+01 -1.17198e+01
       E  1.42218e+01 -8.62711e+00  2.04724e+01
3
# CELL(abcABC): 1322.94304  1322.94304  1322.94304    90.00000    90.00000    90.00000  Step:        6300  Bead:      17 positions{angstrom}  cell{angstrom}
       E  1.58149e+00 -4.61204e+01 -8.25248e+01
       E  9.42662e+01  1.31438e+01 -2.71857e+01
       E  2.63713e-01 -2.18123e+01 -9.57315e-01
3
# CELL(abcABC): 1322.94304  1322.94304  1322.94304    90.00000    90.00000    90.00000  Step:        6400  Bead:      17 positions{angstrom}  cell{angstrom}
       E  1.91780e+00 -4.38849e+01 -9.28595e+01
       E  4.36342e+01  1.15868e+01 -3.76568e+01
       E  3.70617e+01 -2.54706e+00 -3.76159e+00
3
# CELL(abcABC): 1322.94304  1322.94304  1322.94304    90.00000    90.00000    90.00000  Step:        6500  Bead:      17 positions{angstrom}  cell{angstrom}
       E  9.72945e+00 -7.43481e+01 -9.16466e+01
       E -2.28215e+00  5.72535e+00 -2.01204e+01
       E  5.42030e+01 -2.67211e+01 -3.44009e+01
3
# CELL(abcABC): 1322.94304  1322.94304  1322.94304    90.00000    90.00000    90.00000  Step:        6600  Bead:      17 positions{angstrom}  cell{angstrom}
       E  1.56934e+01 -7.56028e+01 -6.79144e+01
       E  8.96346e+00 -2.60973e+01 -5.13587e+00
       E  4.45449e+01 -1.93318e+01 -1.85330e-01
3
# CELL(abcABC): 1322.94304  1322.94304  1322.94304    90.00000    90.00000    90.00000  Step:        6700  Bead:      17 positions{angstrom}  cell{angstrom}
       E  3.80368e+00 -1.04297e+02 -7.13458e+01
       E  1.70235e+01  4.01761e+01 -9.54475e+00
       E  2.25576e+00 -1.37748e+01  3.82455e+01
3
# CELL(abcABC): 1322.94304  1322.94304  1322.94304    90.00000    90.00000    90.00000  Step:        6800  Bead:      17 positions{angstrom}  cell{angstrom}
       E -1.64878e+01 -1.07624e+02 -5.95113e+01
       E  8.44190e+00 -6.51014e+00 -2.49014e+01
       E  1.34025e+01 -8.37291e+00  8.38000e+00
3
# CELL(abcABC): 1322.94304  1322.94304  1322.94304    90.00000    90.00000    90.00000  Step:        6900  Bead:      17 positions{angstrom}  cell{angstrom}
       E -3.09773e-01 -8.75391e+01 -4.16797e+01
       E  1.23233e+01 -4.06117e+01 -3.09326e+01
       E -6.85254e+00 -9.09813e+00  1.38172e+01
3
# CELL(abcABC): 1322.94304  1322.94304  1322.94304    90.00000    90.00000    90.00000  Step:        7000  Bead:      17 positions{angstrom}  cell{angstrom}
       E  4.51328e+01 -7.83747e+01 -7.13745e-01
       E  7.68165e+00 -1.68498e+01  1.01233e+01
       E -9.61204e+00  2.14610e+01 -1.91982e+01
3
# CELL(abcABC): 1322.94304  1322.94304  1322.94304    90.00000    90.00000    90.00000  Step:        7100  Bead:      17 positions{angstrom}  cell{angstrom}
       E  5.07173e+01 -2.59992e+01  2.04249e+01
       E -5.01928e+00  1.23826e+00  9.27946e+00
       E  6.09113e+01  2.49835e+01 -4.35095e+01
3
# CELL(abcABC): 1322.94304  1322.94304  1322.94304    90.00000    90.00000    90.00000  Step:        7200  Bead:      17 positions{angstrom}  cell{angstrom}
       E  4.13976e+01 -4.25762e+01 -3.09346e+01
       E -3.98092e+01  3.27436e+01  4.08178e+01
       E  3.69687e+01  4.06889e+01 -1.96440e+01
3
# CELL(abcABC): 1322.94304  1322.94304  1322.94304    90.00000    90.00000    90.00000  Step:        7300  Bead:      17 positions{angstrom}  cell{angstrom}
       E  2.80424e+01 -5.07110e+01 -6.84686e+01
       E -3.33163e+01  3.12842e+01  3.37490e+01
       E  5.07692e+01  6.17964e+01 -1.77269e+01
3
# CELL(abcABC): 1322.94304  1322.94304  1322.94304    90.00000    90.00000    90.00000  Step:        7400  Bead:      17 positions{angstrom}  cell{angstrom}
       E  2.69494e+01 -3.46017e+01 -3.91506e+01
       E -2.58789e+01  2.11932e+01  1.64520e+01
       E  4.67736e+01  2.15185e+01  8.26075e+00
3
# CELL(abcABC): 1322.94304  1322.94304  1322.94304    90.00000    90.00000    90.00000  Step:        7500  Bead:      17 positions{angstrom}  cell{angstrom}
       E  6.14724e+00 -7.58772e+01 -4.86914e+01
       E -5.32444e+01 -1.56642e+01  2.29429e+01
       E  6.28707e+01  4.25449e+01 -9.24268e-01
3
# CELL(abcABC): 1322.94304  1322.94304  1322.94304    90.00000    90.00000    90.00000  Step:        7600  Bead:      17 positions{angstrom}  cell{angstrom}
       E  1.59359e+01 -6.32677e+01 -3.14744e+01
       E -1.11019e+01 -2.17313e+01 -1.89898e+01
       E  3.34479e+01  2.50040e+01 -2.30090e+01
3
# CELL(abcABC): 1322.94304  1322.94304  1322.94304    90.00000    90.00000    90.00000  Step:        7700  Bead:      17 positions{angstrom}  cell{angstrom}
       E  1.60387e+01 -5.08221e+01 -1.99057e+01
       E -1.09120e+01 -4.57512e+01 -4.19631e+01
       E  7.81686e+01  2.10819e+01 -3.30913e+01
3
# CELL(abcABC): 1322.94304  1322.94304  1322.94304    90.00000    90.00000    90.00000  Step:        7800  Bead:      17 positions{angstrom}  cell{angstrom}
       E  2.51423e+01 -7.61609e+01 -2.63929e+01
       E -1.35776e+01 -3.29300e+01 -4.08219e+00
       E  3.55273e+01  1.39469e+01 -1.78808e+01
3
# CELL(abcABC): 1322.94304  1322.94304  1322.94304    90.00000    90.00000    90.00000  Step:        7900  Bead:      17 positions{angstrom}  cell{angstrom}
       E  1.87075e+01 -6.21964e+01 -3.98880e+01
       E -1.38867e+00 -1.97693e+00 -4.43216e+01
       E  5.93551e+00 -6.47051e-01 -4.82141e+01
3
# CELL(abcABC): 1322.94304  1322.94304  1322.94304    90.00000    90.00000    90.00000  Step:        8000  Bead:      17 positions{angstrom}  cell{angstrom}
       E  5.44106e+00 -3.95395e+00 -1.08096e+01
       E -5.87976e+00 -6.58984e+00 -1.44916e+01
       E  1.84215e+01 -1.40352e+01 -4.00881e+01
3
# CELL(abcABC): 1322.94304  1322.94304  1322.94304    90.00000    90.00000    90.00000  Step:        8100  Bead:      17 positions{angstrom}  cell{angstrom}
       E -2.42106e+01  6.25175e+00 -3.55180e+01
       E -4.07753e+01  2.58413e+01 -8.36516e-01
       E  2.94726e+01 -8.23949e+00 -1.06319e+01
3
# CELL(abcABC): 1322.94304  1322.94304  1322.94304    90.00000    90.00000    90.00000  Step:        8200  Bead:      17 positions{angstrom}  cell{angstrom}
       E  2.46855e+00  2.99021e+01 -6.00073e+01
       E -2.12673e+01 -2.40011e+01 -3.17441e+01
       E -2.56597e+01 -5.81112e+01  5.48027e+01
3
# CELL(abcABC): 1322.94304  1322.94304  1322.94304    90.00000    90.00000    90.00000  Step:        8300  Bead:      17 positions{angstrom}  cell{angstrom}
       E  3.21332e+01  3.94284e+01 -3.05730e+01
       E -2.90819e+01 -2.76986e+00 -1.19354e+01
       E  2.38277e+01 -3.44390e+01  7.84562e+01
3
# CELL(abcABC): 1322.94304  1322.94304  1322.94304    90.00000    90.00000    90.00000  Step:        8400  Bead:      17 positions{angstrom}  cell{angstrom}
       E -1.52578e+01  2.58198e+01 -2.29928e+01
       E  2.75758e+01  3.79588e+01  2.55076e+01
       E  7.70040e+00 -4.79516e+01  5.63345e+01
3
# CELL(abcABC): 1322.94304  1322.94304  1322.94304    90.00000    90.00000    90.00000  Step:        8500  Bead:      17 positions{angstrom}  cell{angstrom}
       E -2.55662e+01 -2.01847e+01  7.95763e+00
       E  4.71315e+01 -1.72696e+00 -5.46683e+01
       E  1.13114e+01 -4.34851e+01  3.86239e+01
3
# CELL(abcABC): 1322.94304  1322.94304  1322.94304    90.00000    90.00000    90.00000  Step:        8600  Bead:      17 positions{angstrom}  cell{angstrom}
       E  2.52051e+00 -3.21306e+01 -1.74394e+01
       E  3.59295e+01  1.42986e+01 -2.97828e+01
       E  1.69631e+01 -1.80546e+01  2.88327e+01
3
# CELL(abcABC): 1322.94304  1322.94304  1322.94304    90.00000    90.00000    90.00000  Step:        8700  Bead:      17 positions{angstrom}  cell{angstrom}
       E -6.97116e+00 -1.52850e+01 -5.09953e+00
       E  1.99410e+01  4.85282e+00 -4.77090e+01
       E  2.98884e+01 -3.45722e+01  4.90455e+01
3
# CELL(abcABC): 1322.94304  1322.94304  1322.94304    90.00000    90.00000    90.00000  Step:        8800  Bead:      17 positions{angstrom}  cell{angstrom}
       E -1.09675e+01  2.85834e+01  9.50551e+00
       E  2.29310e+01 -1.83865e+01 -1.98687e+01
       E  5.56645e+01 -4.09951e+01  2.79151e+01
3
# CELL(abcABC): 1322.94304  1322.94304  1322.94304    90.00000    90.00000    90.00000  Step:        8900  Bead:      17 positions{angstrom}  cell{angstrom}
       E -4.46252e+01  4.94426e+01  3.78703e+01
       E -3.87961e+00 -1.52939e+01  2.60900e+01
       E  5.26566e+01 -5.52360e+01  3.16515e+01
3
# CELL(abcABC): 1322.94304  1322.94304  1322.94304    90.00000    90.00000    90.00000  Step:        9000  Bead:      17 positions{angstrom}  cell{angstrom}
       E -4.72209e+01  5.17772e+01  3.61002e+01
       E  4.41086e+00 -3.76986e+00  4.97297e+01
       E  4.65874e+01 -3.26894e+01  2.66672e+01
3
# CELL(abcABC): 1322.94304  1322.94304  1322.94304    90.00000    90.00000    90.00000  Step:        9100  Bead:      17 positions{angstrom}  cell{angstrom}
       E -1.37467e+01  1.43526e+01  2.41148e+01
       E  3.08342e+01 -1.93581e+01  6.96946e+01
       E  3.51803e+01 -9.37366e+00  2.28652e+01
3
# CELL(abcABC): 1322.94304  1322.94304  1322.94304    90.00000    90.00000    90.00000  Step:        9200  Bead:      17 positions{angstrom}  cell{angstrom}
       E  4.15382e+01  3.06938e+01  1.26282e+01
       E -3.02548e+01  6.01129e+00  7.22289e+01
       E  3.65600e+01 -5.86666e+01 -2.12550e+01
3
# CELL(abcABC): 1322.94304  1322.94304  1322.94304    90.00000    90.00000    90.00000  Step:        9300  Bead:      17 positions{angstrom}  cell{angstrom}
       E  8.44116e+00  9.75079e+00  8.28622e+00
       E -4.04508e+01  5.13104e+00 -1.37471e-01
       E -8.50948e+00 -4.09731e+01  3.09189e+00
3
# CELL(abcABC): 1322.94304  1322.94304  1322.94304    90.00000    90.00000    90.00000  Step:        9400  Bead:      17 positions{angstrom}  cell{angstrom}
       E -5.27491e+00  4.30858e+01 -1.43895e+01
       E -3.29301e+01 -3.32060e+01  2.43483e+01
       E -9.91587e+00 -4.41334e+01 -7.18739e+00
3
# CELL(abcABC): 1322.94304  1322.94304  1322.94304    90.00000    90.00000    90.00000  Step:        9500  Bead:      17 positions{angstrom}  cell{angstrom}
       E  3.60026e+01  5.89978e+01 -5.72925e+01
       E -9.69961e+00 -4.84864e+01 -8.98504e+00
       E  1.19735e+01 -2.18395e+01  4.66765e+01
3
# CELL(abcABC): 1322.94304  1322.94304  1322.94304    90.00000    90.00000    90.00000  Step:        9600  Bead:      17 positions{angstrom}  cell{angstrom}
       E  7.91649e+00  6.68046e+00 -5.42007e+01
       E  1.93706e+01 -5.17203e+01  2.97694e+01
       E -8.65077e+00 -3.09513e+01 -2.45305e+00
3
# CELL(abcABC): 1322.94304  1322.94304  1322.94304    90.00000    90.00000    90.00000  Step:        9700  Bead:      17 positions{angstrom}  cell{angstrom}
       E  1.46463e+00 -4.12054e+01 -3.42225e+01
       E  1.84731e+01 -7.84015e+01  2.13050e+01
       E  7.30152e+00  2.94793e+01  7.36696e+00
3
# CELL(abcABC): 1322.94304  1322.94304  1322.94304    90.00000    90.00000    90.00000  Step:        9800  Bead:      17 positions{angstrom}  cell{angstrom}
       E -2.95640e+01 -5.46635e+01 -2.28776e+01
       E  1.75091e+01 -9.42965e+01  1.65317e-01
       E -2.96236e+00 -2.81508e+01  2.80207e+01
3