3
# CELL(abcABC): 1322.94304  1322.94304  1322.94304    90.00000    90.00000    90.00000  Step:           0  Bead:       9 positions{angstrom}  cell{angstrom}
       E  0.00000e+00  0.00000e+00  0.00000e+00
       E  0.00000e+00  0.00000e+00  0.00000e+00
       E  0.00000e+00  0.00000e+00  0.00000e+00
3
# CELL(abcABC): 1322.94304  1322.94304  1322.94304    90.00000    90.00000    90.00000  Step:         100  Bead:       9 positions{angstrom}  cell{angstrom}
       E -1.79982e+01  1.10991e+01  1.21094e+00
       E -1.42467e+01 -2.09944e+00 -3.16068e+01
       E -3.22214e+01  7.49812e+00 -5.19750e+00
3
# CELL(abcABC): 1322.94304  1322.94304  1322.94304    90.00000    90.00000    90.00000  Step:         200  Bead:       9 positions{angstrom}  cell{angstrom}
       E -5.96473e+00 -2.77467e+01 -5.38497e+01
       E  5.02877e+01  3.55851e+00 -4.49176e+01
       E -3.76174e+01 -4.76353e+00 -7.61727e+00
3
# CELL(abcABC): 1322.94304  1322.94304  1322.94304    90.00000    90.00000    90.00000  Step:         300  Bead:       9 positions{angstrom}  cell{angstrom}
       E -2.45491e+01 -2.08766e+01 -4.31953e+01
       E  2.65386e+01  7.24421e+00 -1.65774e+01
       E -3.10504e+01  1.29871e+01  2.23583e+01
3
# CELL(abcABC): 1322.94304  1322.94304  1322.94304    90.00000    90.00000    90.00000  Step:         400  Bead:       9 positions{angstrom}  cell{angstrom}
       E -2.67587e+00  1.98838e+01 -2.24619e+01
       E -9.49601e+00  3.94356e+01  5.60861e+00
       E  1.12436e+01  1.09062e+01  1.88769e+01
3
# CELL(abcABC): 1322.94304  1322.94304  1322.94304    90.00000    90.00000    90.00000  Step:         500  Bead:       9 positions{angstrom}  cell{angstrom}
       E -2.76394e+01  2.21434e+01 -9.87363e+00
       E  2.55085e+01  1.10990e+01  1.80352e+01
       E -9.94899e+00  1.37633e+01  4.19043e+01
3
# CELL(abcABC): 1322.94304  1322.94304  1322.94304    90.00000    90.00000    90.00000  Step:         600  Bead:       9 positions{angstrom}  cell{angstrom}
       E -4.78027e+01  3.89992e+01 -3.51720e+01
       E -1.47196e+01 -6.10905e+00  3.43398e+01
       E  1.35737e+01  8.66887e+00  9.00953e+00
3
# CELL(abcABC): 1322.94304  1322.94304  1322.94304    90.00000    90.00000    90.00000  Step:         700  Bead:       9 positions{angstrom}  cell{angstrom}
       E -1.38549e+01  3.74602e+01 -2.83097e+01
       E -1.65947e+00  2.88940e+01  4.46029e+01
       E  9.55691e+00  2.51895e+01  2.08895e+01
3
# CELL(abcABC): 1322.94304  1322.94304  1322.94304    90.00000    90.00000    90.00000  Step:         800  Bead:       9 positions{angstrom}  cell{angstrom}
       E -4.46960e+01  3.37034e+01 -2.47294e+01
       E  1.36701e+01  5.72920e+01  2.31211e+01
       E -6.49056e+01  1.82463e+01  5.96512e+01
3
# CELL(abcABC): 1322.94304  1322.94304  1322.94304    90.00000    90.00000    90.00000  Step:         900  Bead:       9 positions{angstrom}  cell{angstrom}
       E  4.43950e+00 -1.09974e+01 -1.90726e+00
       E  7.17260e+00  9.12856e+00 -8.98639e+00
       E -3.79110e+01  3.18556e+01  7.42609e+01
3
# CELL(abcABC): 1322.94304  1322.94304  1322.94304    90.00000    90.00000    90.00000  Step:        1000  Bead:       9 positions{angstrom}  cell{angstrom}
       E -7.23883e+00  2.71078e+01 -3.57261e+01
       E -1.19842e+01 -9.00441e+00 -5.27373e+01
       E -3.28037e+01  2.59160e+01  7.52683e+01
3
# CELL(abcABC): 1322.94304  1322.94304  1322.94304    90.00000    90.00000    90.00000  Step:        1100  Bead:       9 positions{angstrom}  cell{angstrom}
       E  3.58970e+01  2.39965e+01 -7.68456e+01
       E  3.69413e+01 -1.73937e+01 -4.92487e+01
       E -1.62187e+01  2.13104e+01  6.77759e+01
3
# CELL(abcABC): 1322.94304  1322.94304  1322.94304    90.00000    90.00000    90.00000  Step:        1200  Bead:       9 positions{angstrom}  cell{angstrom}
       E  2.14356e+01  2.15742e+01 -8.26458e+01
       E  3.15191e+01 -3.06487e+01 -8.26582e+01
       E -1.19139e+01  2.57303e+01  3.48265e+01
3
# CELL(abcABC): 1322.94304  1322.94304  1322.94304    90.00000    90.00000    90.00000  Step:        1300  Bead:       9 positions{angstrom}  cell{angstrom}
       E -1.29786e+01  2.76533e+01 -7.93976e+01
       E  5.08367e+00 -5.57658e+01 -5.55278e+01
       E -2.53359e+01  1.81691e+01  4.22431e+01
3
# CELL(abcABC): 1322.94304  1322.94304  1322.94304    90.00000    90.00000    90.00000  Step:        1400  Bead:       9 positions{angstrom}  cell{angstrom}
       E -4.21856e+01  1.04020e+01 -9.46194e+01
       E -3.10316e+00 -2.44354e+01 -5.48056e+01
       E -5.50321e+01  3.83406e+01 -5.30697e+00
3
# CELL(abcABC): 1322.94304  1322.94304  1322.94304    90.00000    90.00000    90.00000  Step:        1500  Bead:       9 positions{angstrom}  cell{angstrom}
       E -2.01909e+01  5.54831e+01 -7.32462e+01
       E -2.45996e+01 -3.03450e+01 -2.15393e+01
       E -7.35391e+01  3.67734e+01  2.53632e+01
3
# CELL(abcABC): 1322.94304  1322.94304  1322.94304    90.00000    90.00000    90.00000  Step:        1600  Bead:       9 positions{angstrom}  cell{angstrom}
       E  1.03096e+01  4.79866e+01 -5.09199e+01
       E -2.79656e+01  3.06742e+01 -2.21811e+01
       E -4.15034e+01  5.27609e+01  1.30358e+01
3
# CELL(abcABC): 1322.94304  1322.94304  1322.94304    90.00000    90.00000    90.00000  Step:        1700  Bead:       9 positions{angstrom}  cell{angstrom}
       E  1.75651e+01  1.79558e+01 -1.01848e+01
       E  3.31642e-01  3.93768e+01  1.73724e+01
       E -3.88423e+01  6.03007e+01  2.65753e+01
3
# CELL(abcABC): 1322.94304  1322.94304  1322.94304    90.00000    90.00000    90.00000  Step:        1800  Bead:       9 positions{angstrom}  cell{angstrom}
       E -2.44815e+01 -5.51170e+00  1.38315e+01
       E -2.14090e+01  5.70303e+01  2.75442e+00
       E -5.67116e+01  6.12108e+01  8.67760e+01
3
# CELL(abcABC): 1322.94304  1322.94304  1322.94304    90.00000    90.00000    90.00000  Step:        1900  Bead:       9 positions{angstrom}  cell{angstrom}
       E -3.15939e+01  1.80747e+01  2.83290e+01
       E -6.94955e+01  2.58000e+01  3.73075e+00
       E -6.57036e+01  5.89694e+01  6.61182e+01
3
# CELL(abcABC): 1322.94304  1322.94304  1322.94304    90.00000    90.00000    90.00000  Step:        2000  Bead:       9 positions{angstrom}  cell{angstrom}
       E -1.66294e+01  7.21257e+00  4.67371e+01
       E -6.36451e+01  3.52637e+01  3.49856e+01
       E -9.58359e+01  4.73416e+01 -1.04497e+01
3
# CELL(abcABC): 1322.94304  1322.94304  1322.94304    90.00000    90.00000    90.00000  Step:        2100  Bead:       9 positions{angstrom}  cell{angstrom}
       E -3.30704e+00 -2.06507e+01  4.19228e+01
       E -3.10255e+01  1.40288e+01 -1.05578e+01
       E -6.12507e+01  2.59807e+01  1.43529e+01
3
# CELL(abcABC): 1322.94304  1322.94304  1322.94304    90.00000    90.00000    90.00000  Step:        2200  Bead:       9 positions{angstrom}  cell{angstrom}
       E -3.82473e+01  4.52308e-01  5.10745e+01
       E -3.96309e+01  6.11844e+00 -2.12477e+01
       E -3.66886e+01  4.98529e+01  1.38327e+01
3
# CELL(abcABC): 1322.94304  1322.94304  1322.94304    90.00000    90.00000    90.00000  Step:        2300  Bead:       9 positions{angstrom}  cell{angstrom}
       E -3.08361e+01 -4.04368e+01  4.44610e+01
       E -3.73204e+01 -2.02203e+01 -1.26471e+01
       E -2.05671e+01  2.12805e+01  2.78736e+01
3
# CELL(abcABC): 1322.94304  1322.94304  1322.94304    90.00000    90.00000    90.00000  Step:        2400  Bead:       9 positions{angstrom}  cell{angstrom}
       E -1.87019e+01 -2.86274e+01  2.85017e+01
       E  2.13895e+00 -2.35529e+01 -1.82020e+01
       E  8.58775e+00  9.86877e-01  2.32477e+01
3
# CELL(abcABC): 1322.94304  1322.94304  1322.94304    90.00000    90.00000    90.00000  Step:        2500  Bead:       9 positions{angstrom}  cell{angstrom}
       E -9.11875e+00 -9.96891e+00  4.50772e+01
       E -1.96703e+00 -3.06290e+01 -6.10979e+01
       E -2.41260e+00 -1.35021e+00  5.16624e+01
3
# CELL(abcABC): 1322.94304  1322.94304  1322.94304    90.00000    90.00000    90.00000  Step:        2600  Bead:       9 positions{angstrom}  cell{angstrom}
       E  2.12921e+01 -1.89106e+01  4.85220e+01
       E -4.98578e+01 -2.90642e+01 -8.67180e+01
       E -3.38989e+00 -1.35318e+01  6.73984e+01
3
# CELL(abcABC): 1322.94304  1322.94304  1322.94304    90.00000    90.00000    90.00000  Step:        2700  Bead:       9 positions{angstrom}  cell{angstrom}
       E -8.52233e-01 -2.20459e+01  5.17812e+01
       E -9.39605e+01 -3.57662e+01 -6.68614e+01
       E -6.01020e+00 -9.54742e+00  3.85626e+01
3
# CELL(abcABC): 1322.94304  1322.94304  1322.94304    90.00000    90.00000    90.00000  Step:        2800  Bead:       9 positions{angstrom}  cell{angstrom}
       E -2.82727e+01 -4.42355e+01 -1.86730e+01
       E -6.13241e+01 -7.25170e+01 -2.48161e+01
       E  6.20672e+00 -1.74269e+01  6.28718e+01
3
# CELL(abcABC): 1322.94304  1322.94304  1322.94304    90.00000    90.00000    90.00000  Step:        2900  Bead:       9 positions{angstrom}  cell{angstrom}
       E -8.20140e+00 -3.86738e+01 -3.16654e+01
       E -4.36796e+01 -4.18713e+01 -1.70827e+01
       E  6.42065e+00  2.10728e+01  4.34081e+01
3
# CELL(abcABC): 1322.94304  1322.94304  1322.94304    90.00000    90.00000    90.00000  Step:        3000  Bead:       9 positions{angstrom}  cell{angstrom}
       E  1.32069e+01 -2.72798e+01  5.15891e+00
       E -3.59492e+01 -5.59453e+01  2.68250e+01
       E  1.93767e+01  2.82323e+01  3.88843e+00
3
# CELL(abcABC): 1322.94304  1322.94304  1322.94304    90.00000    90.00000    90.00000  Step:        3100  Bead:       9 positions{angstrom}  cell{angstrom}
       E  3.36153e+01 -2.04900e+01  3.02226e+01
       E -5.73064e+01 -6.93621e+01  4.72260e+01
       E -1.68666e+01  2.16395e+01  8.25875e+00
3
# CELL(abcABC): 1322.94304  1322.94304  1322.94304    90.00000    90.00000    90.00000  Step:        3200  Bead:       9 positions{angstrom}  cell{angstrom}
       E  2.10289e+01  1.23889e+01  5.98514e+01
       E -9.19309e+01 -4.38411e+01  7.32859e+01
       E -1.64888e+01  4.88929e+01  1.84334e+01
3
# CELL(abcABC): 1322.94304  1322.94304  1322.94304    90.00000    90.00000    90.00000  Step:        3300  Bead:       9 positions{angstrom}  cell{angstrom}
       E  3.15269e+01 -1.58241e+01  3.02083e+01
       E -9.22573e+01 -5.78276e+01  6.69200e+01
       E -2.04244e+01  1.66109e+01  5.25494e+01
3
# CELL(abcABC): 1322.94304  1322.94304  1322.94304    90.00000    90.00000    90.00000  Step:        3400  Bead:       9 positions{angstrom}  cell{angstrom}
       E  1.09166e+01  3.57359e+01 -7.36292e+00
       E -4.89918e+01 -4.77281e+01  6.57162e+01
       E -7.18787e+01  2.92467e+01  7.77145e+01
3
# CELL(abcABC): 1322.94304  1322.94304  1322.94304    90.00000    90.00000    90.00000  Step:        3500  Bead:       9 positions{angstrom}  cell{angstrom}
       E -2.01942e+01  3.56488e+01  1.64747e+01
       E -2.42342e+01 -4.21940e+01  5.43226e+01
       E -3.83739e+01  3.35350e+01  7.56000e+01
3
# CELL(abcABC): 1322.94304  1322.94304  1322.94304    90.00000    90.00000    90.00000  Step:        3600  Bead:       9 positions{angstrom}  cell{angstrom}
       E -4.08263e+01  2.96662e+00  2.22157e+01
       E -2.98866e+01 -4.00025e+01  1.50259e+01
       E -8.19799e+01  1.43940e+01  6.49762e+00
3
# CELL(abcABC): 1322.94304  1322.94304  1322.94304    90.00000    90.00000    90.00000  Step:        3700  Bead:       9 positions{angstrom}  cell{angstrom}
       E -4.63500e+01  9.01419e+00  8.50865e+00
       E -8.54458e+00 -2.17898e+01  2.32931e+01
       E -5.60656e+01 -1.49026e+01  5.04975e+00
3
# CELL(abcABC): 1322.94304  1322.94304  1322.94304    90.00000    90.00000    90.00000  Step:        3800  Bead:       9 positions{angstrom}  cell{angstrom}
       E -8.12756e+01  8.26089e+00 -2.31706e+01
       E -1.47198e+01 -1.35000e+01 -2.52896e+01
       E -3.74361e+01 -2.25551e+01  4.72122e+00
3
# CELL(abcABC): 1322.94304  1322.94304  1322.94304    90.00000    90.00000    90.00000  Step:        3900  Bead:       9 positions{angstrom}  cell{angstrom}
       E -7.24798e+01  2.38765e+01 -3.38149e+01
       E  1.45732e+01 -2.04259e+01 -4.84584e+01
       E -3.61696e+01  5.43063e+00 -1.70806e+01
3
# CELL(abcABC): 1322.94304  1322.94304  1322.94304    90.00000    90.00000    90.00000  Step:        4000  Bead:       9 positions{angstrom}  cell{angstrom}
       E -1.04537e+02  3.07428e+01 -3.90325e+01
       E -4.21821e+01  1.00552e+01  1.69996e+00
       E -4.68630e+01 -3.34135e+00  2.64476e+00
3
# CELL(abcABC): 1322.94304  1322.94304  1322.94304    90.00000    90.00000    90.00000  Step:        4100  Bead:       9 positions{angstrom}  cell{angstrom}
       E -7.47182e+01  5.74399e+01 -4.92754e+01
       E -2.23148e+01  2.03890e+01  4.66694e+01
       E -7.51635e+01  2.93571e+01  5.52639e+01
3
# CELL(abcABC): 1322.94304  1322.94304  1322.94304    90.00000    90.00000    90.00000  Step:        4200  Bead:       9 positions{angstrom}  cell{angstrom}
       E -4.16090e+01  5.01699e+01 -4.80073e+01
       E -4.35200e+01  1.32969e+01  3.05240e+01
       E -4.74835e+01  2.59555e+01  4.86219e+01
3
# CELL(abcABC): 1322.94304  1322.94304  1322.94304    90.00000    90.00000    90.00000  Step:        4300  Bead:       9 positions{angstrom}  cell{angstrom}
       E -2.56159e+01  1.95694e+01 -6.25215e+01
       E -7.44598e+01  3.25148e+01  7.39424e+01
       E -5.55767e+01  3.62047e+01 -1.81981e+00
3
# CELL(abcABC): 1322.94304  1322.94304  1322.94304    90.00000    90.00000    90.00000  Step:        4400  Bead:       9 positions{angstrom}  cell{angstrom}
       E -5.26887e+01 -3.81950e+00 -6.19417e+01
       E -4.93580e+01  1.00478e+02  4.30807e+01
       E -5.56292e+01  1.66017e+00 -7.11383e-01
3
# CELL(abcABC): 1322.94304  1322.94304  1322.94304    90.00000    90.00000    90.00000  Step:        4500  Bead:       9 positions{angstrom}  cell{angstrom}
       E -4.50162e+01 -6.29635e+00 -8.61871e+01
       E -7.62992e+01  6.31517e+01  1.79171e+01
       E -3.04584e+01 -1.94871e+01  2.52153e+01
3
# CELL(abcABC): 1322.94304  1322.94304  1322.94304    90.00000    90.00000    90.00000  Step:        4600  Bead:       9 positions{angstrom}  cell{angstrom}
       E  1.15218e+01  3.96341e+01 -8.00182e+01
       E -4.88072e+01  1.89189e+01 -2.08904e+01
       E  5.41959e+00 -5.57513e+00  3.52829e+01
3
# CELL(abcABC): 1322.94304  1322.94304  1322.94304    90.00000    90.00000    90.00000  Step:        4700  Bead:       9 positions{angstrom}  cell{angstrom}
       E  1.81597e+01  5.24497e+01 -6.90230e+01
       E -2.69624e+01  3.99955e+01 -1.60475e+01
       E  4.43671e+01 -1.41369e+01  1.47385e+01
3
# CELL(abcABC): 1322.94304  1322.94304  1322.94304    90.00000    90.00000    90.00000  Step:        4800  Bead:       9 positions{angstrom}  cell{angstrom}
       E  3.26292e+01  6.79530e+01 -2.80600e+01
       E -7.54040e+01  6.81717e+01 -1.62261e+00
       E  4.27866e+01  2.25341e+01 -1.97693e+01
3
# CELL(abcABC): 1322.94304  1322.94304  1322.94304    90.00000    90.00000    90.00000  Step:        4900  Bead:       9 positions{angstrom}  cell{angstrom}
       E  3.94418e+01  5.12326e+01 -2.70186e+01
       E -7.54470e+01 -1.58031e+01 -1.54742e+01
       E  1.14677e+01  1.01948e+01 -1.34324e+01
3
# CELL(abcABC): 1322.94304  1322.94304  1322.94304    90.00000    90.00000    90.00000  Step:        5000  Bead:       9 positions{angstrom}  cell{angstrom}
       E  7.68623e+00  2.64924e+01  1.07133e+01
       E -4.37858e+01 -2.37349e+01 -4.20459e+01
       E  1.50938e+00 -1.02871e+01 -3.21671e+01
3
# CELL(abcABC): 1322.94304  1322.94304  1322.94304    90.00000    90.00000    90.00000  Step:        5100  Bead:       9 positions{angstrom}  cell{angstrom}
       E  8.94477e+00  1.46183e+01  1.87439e+01
       E -3.06824e+01 -2.39530e+01 -3.20365e+01
       E  6.85079e+00  1.11941e+01  1.99898e+00
3
# CELL(abcABC): 1322.94304  1322.94304  1322.94304    90.00000    90.00000    90.00000  Step:        5200  Bead:       9 positions{angstrom}  cell{angstrom}
       E  1.60029e+01  3.09464e+01  2.39608e+01
       E -5.60982e+01  2.10390e+01 -2.68111e+01
       E  1.18475e+01  3.87839e+00  4.69806e+00
3
# CELL(abcABC): 1322.94304  1322.94304  1322.94304    90.00000    90.00000    90.00000  Step:        5300  Bead:       9 positions{angstrom}  cell{angstrom}
       E  2.67014e+01  5.66367e+01  4.28883e+01
       E -2.54883e+01  4.11086e+01 -2.03814e+01
       E  3.85494e+01  5.74091e+01  2.42750e+01
3
# CELL(abcABC): 1322.94304  1322.94304  1322.94304    90.00000    90.00000    90.00000  Step:        5400  Bead:       9 positions{angstrom}  cell{angstrom}
       E  6.35267e+00  4.17665e+01  2.86474e+01
       E -3.97748e+01  3.25815e+01 -4.99538e+01
       E  1.66997e+01  2.15997e+01  5.25262e+01
3
# CELL(abcABC): 1322.94304  1322.94304  1322.94304    90.00000    90.00000    90.00000  Step:        5500  Bead:       9 positions{angstrom}  cell{angstrom}
       E -1.45109e+01  4.90825e+01  6.07560e+01
       E -5.76793e+01  5.51439e+00 -4.03188e+01
       E -1.97157e+01 -1.36870e+00  1.78826e+01
3
# CELL(abcABC): 1322.94304  1322.94304  1322.94304    90.00000    90.00000    90.00000  Step:        5600  Bead:       9 positions{angstrom}  cell{angstrom}
       E -2.86118e+01  1.71527e+00  2.01685e+01
       E -5.14548e+01  1.47422e+01 -2.19599e+01
       E -2.91281e+01  1.37141e-01  1.40561e+01
3
# CELL(abcABC): 1322.94304  1322.94304  1322.94304    90.00000    90.00000    90.00000  Step:        5700  Bead:       9 positions{angstrom}  cell{angstrom}
       E -2.57564e+01  1.43490e+01  2.00218e+01
       E -4.44234e+01  3.46214e+01 -1.40373e+01
       E -9.39495e+00  1.15885e+00  1.52950e+01
3
# CELL(abcABC): 1322.94304  1322.94304  1322.94304    90.00000    90.00000    90.00000  Step:        5800  Bead:       9 positions{angstrom}  cell{angstrom}
       E -1.39292e+01  1.51856e+01  5.53473e+00
       E -2.51414e+01  3.79804e+01 -9.49478e+00
       E  3.22801e-02  8.28691e+00  2.04637e+01
3
# CELL(abcABC): 1322.94304  1322.94304  1322.94304    90.00000    90.00000    90.00000  Step:        5900  Bead:       9 positions{angstrom}  cell{angstrom}
       E  1.68402e+00 -1.92363e+00 -1.67930e+01
       E -3.64961e+01  2.76259e+01 -3.24713e+01
       E  3.81124e+00 -9.31925e+00  1.89986e+00
3
# CELL(abcABC): 1322.94304  1322.94304  1322.94304    90.00000    90.00000    90.00000  Step:        6000  Bead:       9 positions{angstrom}  cell{angstrom}
       E  4.10661e+01 -3.99503e+01 -8.55974e+00
       E -3.08609e+01  4.13273e+00 -1.80097e+01
       E  2.65770e+01 -1.67617e+01  2.10890e+01
3
# CELL(abcABC): 1322.94304  1322.94304  1322.94304    90.00000    90.00000    90.00000  Step:        6100  Bead:       9 positions{angstrom}  cell{angstrom}
       E  3.78115e+01 -4.68378e+01 -4.82438e+01
       E  2.90861e+01  1.37721e+01  2.13967e+01
       E  4.53609e+00 -1.33813e+01 -1.56674e+01
3
# CELL(abcABC): 1322.94304  1322.94304  1322.94304    90.00000    90.00000    90.00000  Step:        6200  Bead:       9 positions{angstrom}  cell{angstrom}
       E  1.31908e+01 -4.48417e+01 -7.11363e+01
       E  8.53083e+01 -8.65217e+00 -2.80805e+01
       E  3.03570e+01 -9.76932e+00 -7.12447e+00
3
# CELL(abcABC): 1322.94304  1322.94304  1322.94304    90.00000    90.00000    90.00000  Step:        6300  Bead:       9 positions{angstrom}  cell{angstrom}
       E  4.27331e+01 -6.17633e+01 -7.51122e+01
       E  7.97914e+01 -3.87020e+01 -2.75185e+01
       E  2.06449e+01 -2.40475e+01 -2.40471e+01
3
# CELL(abcABC): 1322.94304  1322.94304  1322.94304    90.00000    90.00000    90.00000  Step:        6400  Bead:       9 positions{angstrom}  cell{angstrom}
       E  4.43887e+01 -6.44193e+01 -9.55124e+01
       E  1.09011e+02 -2.93770e+01 -3.70303e+01
       E -6.17310e+00 -1.66000e+01  1.79687e+01
3
# CELL(abcABC): 1322.94304  1322.94304  1322.94304    90.00000    90.00000    90.00000  Step:        6500  Bead:       9 positions{angstrom}  cell{angstrom}
       E -2.53672e+00 -1.16050e+02 -1.05227e+02
       E  5.20093e+01 -3.77181e+01 -2.77157e+01
       E  1.40811e+01 -4.86233e+01  2.74937e+01
3
# CELL(abcABC): 1322.94304  1322.94304  1322.94304    90.00000    90.00000    90.00000  Step:        6600  Bead:       9 positions{angstrom}  cell{angstrom}
       E -3.06746e+01 -8.92474e+01 -1.14152e+02
       E  3.69947e+01 -5.00880e+01 -8.34385e+00
       E  1.94584e+01 -7.51059e+00  3.02307e+01
3
# CELL(abcABC): 1322.94304  1322.94304  1322.94304    90.00000    90.00000    90.00000  Step:        6700  Bead:       9 positions{angstrom}  cell{angstrom}
       E -1.49758e+01 -7.33641e+01 -1.02780e+02
       E  3.66553e+01 -4.32147e+01 -1.15115e+01
       E  1.48105e+01  4.50046e+00  1.22087e+01
3
# CELL(abcABC): 1322.94304  1322.94304  1322.94304    90.00000    90.00000    90.00000  Step:        6800  Bead:       9 positions{angstrom}  cell{angstrom}
       E  1.42231e+01 -5.17009e+01 -6.68741e+01
       E  4.74929e+01  6.49205e+00 -1.09889e+01
       E -5.78249e+00  5.42270e+01 -2.89988e+00
3
# CELL(abcABC): 1322.94304  1322.94304  1322.94304    90.00000    90.00000    90.00000  Step:        6900  Bead:       9 positions{angstrom}  cell{angstrom}
       E -1.02872e+01 -6.20534e+01 -6.93086e+01
       E  9.16846e+00 -3.64669e+01 -3.32523e+01
       E  3.83642e+00  3.39389e+01  1.61732e+01
3
# CELL(abcABC): 1322.94304  1322.94304  1322.94304    90.00000    90.00000    90.00000  Step:        7000  Bead:       9 positions{angstrom}  cell{angstrom}
       E -4.74663e+01 -5.35238e+01 -3.20182e+01
       E  2.56772e+00 -1.41380e+01  6.59024e+00
       E -3.51625e+00  3.72682e+01  4.05115e+01
3
# CELL(abcABC): 1322.94304  1322.94304  1322.94304    90.00000    90.00000    90.00000  Step:        7100  Bead:       9 positions{angstrom}  cell{angstrom}
       E -1.68213e+01 -3.57016e+01 -1.32376e+01
       E -1.20777e+01 -2.64421e+00  4.74049e+01
       E  4.09000e+00  2.98182e+01  5.84040e+01
3
# CELL(abcABC): 1322.94304  1322.94304  1322.94304    90.00000    90.00000    90.00000  Step:        7200  Bead:       9 positions{angstrom}  cell{angstrom}
       E -2.66332e+00 -1.66128e+01 -1.11934e+01
       E -4.16898e+01  2.79943e+01  3.68588e+01
       E  4.30470e+01  4.38926e+01  1.62157e+01
3
# CELL(abcABC): 1322.94304  1322.94304  1322.94304    90.00000    90.00000    90.00000  Step:        7300  Bead:       9 positions{angstrom}  cell{angstrom}
       E -2.73806e+01 -2.13212e+01 -4.10964e+01
       E -2.13689e+01  5.63831e+01  4.17940e+01
       E  8.89875e+01  5.09019e+01 -2.18495e+01
3
# CELL(abcABC): 1322.94304  1322.94304  1322.94304    90.00000    90.00000    90.00000  Step:        7400  Bead:       9 positions{angstrom}  cell{angstrom}
       E -4.65380e+00 -5.48955e+01 -3.74005e+01
       E -1.12795e+01  5.11935e+01  3.26062e+01
       E  1.01186e+02  7.63296e+01 -6.81761e+00
3
# CELL(abcABC): 1322.94304  1322.94304  1322.94304    90.00000    90.00000    90.00000  Step:        7500  Bead:       9 positions{angstrom}  cell{angstrom}
       E -1.15963e+01 -6.77422e+01 -5.08460e+01
       E -2.48305e+01  3.14419e+00  1.06612e+01
       E  4.87953e+01  4.99143e+01 -3.09300e+01
3
# CELL(abcABC): 1322.94304  1322.94304  1322.94304    90.00000    90.00000    90.00000  Step:        7600  Bead:       9 positions{angstrom}  cell{angstrom}
       E -8.78296e+00 -7.83561e+01 -2.15733e+01
       E -7.32076e+00 -4.70289e+01 -2.74941e+01
       E  5.43178e+01  3.62590e+01  5.62056e+00
3
# CELL(abcABC): 1322.94304  1322.94304  1322.94304    90.00000    90.00000    90.00000  Step:        7700  Bead:       9 positions{angstrom}  cell{angstrom}
       E -8.21906e-01 -5.71371e+01 -3.45314e+01
       E -8.28968e+00 -5.44785e+01 -4.35725e+01
       E  4.70550e+01  2.87515e+01 -1.69181e+01
3
# CELL(abcABC): 1322.94304  1322.94304  1322.94304    90.00000    90.00000    90.00000  Step:        7800  Bead:       9 positions{angstrom}  cell{angstrom}
       E  1.50199e+01 -2.83015e+01 -5.19305e+01
       E -1.23222e+01 -7.27332e+01 -1.97708e+01
       E  5.40932e+01  2.43964e+01 -8.62032e+01
3
# CELL(abcABC): 1322.94304  1322.94304  1322.94304    90.00000    90.00000    90.00000  Step:        7900  Bead:       9 positions{angstrom}  cell{angstrom}
       E  1.62139e+01 -3.48732e+01 -3.89084e+01
       E  7.91650e+00 -3.93702e+01 -2.34561e+01
       E  3.31348e+01  1.70208e+01 -6.38222e+01
3
# CELL(abcABC): 1322.94304  1322.94304  1322.94304    90.00000    90.00000    90.00000  Step:        8000  Bead:       9 positions{angstrom}  cell{angstrom}
       E  9.78019e+00 -2.89918e+00  8.27680e+00
       E  3.90592e+01 -4.85677e+01 -2.96601e+01
       E -1.24734e+01  3.69355e+01 -3.00708e+01
3
# CELL(abcABC): 1322.94304  1322.94304  1322.94304    90.00000    90.00000    90.00000  Step:        8100  Bead:       9 positions{angstrom}  cell{angstrom}
       E  4.26027e+01  2.59229e+01 -2.66836e+01
       E  1.17691e+01 -1.35002e+01 -1.53627e+01
       E  9.30858e+00  1.00562e+01  5.35805e+00
3
# CELL(abcABC): 1322.94304  1322.94304  1322.94304    90.00000    90.00000    90.00000  Step:        8200  Bead:       9 positions{angstrom}  cell{angstrom}
       E  2.30917e+01  3.92984e+01 -5.99869e+01
       E -1.74943e+01  1.42437e-01  1.48944e+01
       E  1.25997e+01 -1.86757e+01  3.48726e+00
3
# CELL(abcABC): 1322.94304  1322.94304  1322.94304    90.00000    90.00000    90.00000  Step:        8300  Bead:       9 positions{angstrom}  cell{angstrom}
       E  2.02615e+01  2.87192e+01 -6.09934e+01
       E -1.62874e+01  4.05015e+01  9.45832e+00
       E  5.02379e+01 -5.16118e+01  4.32099e+01
3
# CELL(abcABC): 1322.94304  1322.94304  1322.94304    90.00000    90.00000    90.00000  Step:        8400  Bead:       9 positions{angstrom}  cell{angstrom}
       E  1.26424e+01  3.27739e+01 -1.88469e+01
       E  2.20538e+01  3.03752e+01  2.44983e+01
       E  2.93690e+01 -2.74627e+01  2.98378e+01
3
# CELL(abcABC): 1322.94304  1322.94304  1322.94304    90.00000    90.00000    90.00000  Step:        8500  Bead:       9 positions{angstrom}  cell{angstrom}
       E -4.23764e+01  1.09977e+01 -1.90237e+01
       E  2.72037e+01  9.32200e+00  6.32070e+00
       E  3.16795e+01 -3.10768e+01  4.64485e+01
3
# CELL(abcABC): 1322.94304  1322.94304  1322.94304    90.00000    90.00000    90.00000  Step:        8600  Bead:       9 positions{angstrom}  cell{angstrom}
       E -5.53916e+01  1.92918e+01 -4.10127e+00
       E  1.52540e+01  2.08844e+01 -4.84477e+01
       E  3.89393e+01 -1.48032e+01  3.20726e+01
3
# CELL(abcABC): 1322.94304  1322.94304  1322.94304    90.00000    90.00000    90.00000  Step:        8700  Bead:       9 positions{angstrom}  cell{angstrom}
       E -2.58539e+01  4.55192e+01  8.41454e+00
       E  1.61714e+01  1.48203e+00 -4.06539e+00
       E  2.54741e+01 -3.43237e+01  1.93102e+01
3
# CELL(abcABC): 1322.94304  1322.94304  1322.94304    90.00000    90.00000    90.00000  Step:        8800  Bead:       9 positions{angstrom}  cell{angstrom}
       E -2.23901e+01  4.56635e+01  2.55089e+01
       E  2.47812e+01  4.71500e-03 -5.47812e+00
       E  3.67128e+01 -5.70011e+01  4.26566e+01
3
# CELL(abcABC): 1322.94304  1322.94304  1322.94304    90.00000    90.00000    90.00000  Step:        8900  Bead:       9 positions{angstrom}  cell{angstrom}
       E -1.95799e+01 -2.31422e+01 -3.61161e+00
       E  1.34366e+01 -4.60332e+01  4.29592e+01
       E  1.61828e+01 -5.82071e+01  5.82577e+01
3
# CELL(abcABC): 1322.94304  1322.94304  1322.94304    90.00000    90.00000    90.00000  Step:        9000  Bead:       9 positions{angstrom}  cell{angstrom}
       E -6.92681e+00  1.33963e+01  2.55654e+01
       E -7.67375e+00 -7.09862e+00  5.93505e+01
       E  2.24255e+01 -4.27161e+01 -6.40844e+00
3
# CELL(abcABC): 1322.94304  1322.94304  1322.94304    90.00000    90.00000    90.00000  Step:        9100  Bead:       9 positions{angstrom}  cell{angstrom}
       E -2.73401e+00  3.77791e+01 -1.99054e+00
       E -7.06690e+01 -1.34281e+01  4.93153e+01
       E  8.41747e+00 -1.69859e+01  4.64325e+01
3
# CELL(abcABC): 1322.94304  1322.94304  1322.94304    90.00000    90.00000    90.00000  Step:        9200  Bead:       9 positions{angstrom}  cell{angstrom}
       E -2.43579e+00  3.64238e+01  9.37845e+00
       E  1.98417e+01 -9.45964e+00  1.97701e+01
       E  6.31458e+00 -6.43777e+01  3.43920e+01
3
# CELL(abcABC): 1322.94304  1322.94304  1322.94304    90.00000    90.00000    90.00000  Step:        9300  Bead:       9 positions{angstrom}  cell{angstrom}
       E  1.54133e+01  4.93601e+01 -1.37396e+01
       E -1.00313e+01 -1.42338e+01  1.68082e+01
       E  2.16570e+01 -5.51374e+01 -1.55443e+01
3
# CELL(abcABC): 1322.94304  1322.94304  1322.94304    90.00000    90.00000    90.00000  Step:        9400  Bead:       9 positions{angstrom}  cell{angstrom}
       E  3.20648e+01  4.92897e+01 -6.13592e+01
       E -1.40985e+01 -4.69401e+01  3.23160e+01
       E  4.38188e+01 -4.68873e+01  1.62451e+01
3
# CELL(abcABC): 1322.94304  1322.94304  1322.94304    90.00000    90.00000    90.00000  Step:        9500  Bead:       9 positions{angstrom}  cell{angstrom}
       E  8.64661e+00  4.20940e+01 -4.76973e+01
       E -2.20302e+01 -5.97145e+01  2.71734e+01
       E  3.92191e+01 -3.51254e+01 -3.38055e-01
3
# CELL(abcABC): 1322.94304  1322.94304  1322.94304    90.00000    90.00000    90.00000  Step:        9600  Bead:       9 positions{angstrom}  cell{angstrom}
       E  2.92491e+01  3.52138e+01 -3.28821e+01
       E  4.67999e+01 -3.57409e+01  4.45444e+01
       E -2.20940e+00 -2.02926e+01  4.59849e+00
3
# CELL(abcABC): 1322.94304  1322.94304  1322.94304    90.00000    90.00000    90.00000  Step:        9700  Bead:       9 positions{angstrom}  cell{angstrom}
       E -4.79586e-01 -2.48993e+01 -7.08386e+01
       E  7.07564e+01 -5.74435e+01  2.18445e+01
       E  2.68289e+01 -4.02186e+01  1.03472e+01
3
# CELL(abcABC): 1322.94304  1322.94304  1322.94304    90.00000    90.00000    90.00000  Step:        9800  Bead:       9 positions{angstrom}  cell{angstrom}
       E -3.00136e+01 -7.07279e+01 -7.51435e+01
       E  3.39096e+01 -5.75193e+01 -5.31401e+00
       E  2.85880e+01 -7.41854e+00  9.54317e+00
3