3
# CELL(abcABC): 1322.94304  1322.94304  1322.94304    90.00000    90.00000    90.00000  Step:           0  Bead:      11 positions{angstrom}  cell{angstrom}
       E  0.00000e+00  0.00000e+00  0.00000e+00
       E  0.00000e+00  0.00000e+00  0.00000e+00
       E  0.00000e+00  0.00000e+00  0.00000e+00
3
# CELL(abcABC): 1322.94304  1322.94304  1322.94304    90.00000    90.00000    90.00000  Step:         100  Bead:      11 positions{angstrom}  cell{angstrom}
       E -5.76149e+00  5.08538e+00 -1.49086e+01
       E  1.38897e+01  1.02317e+01 -2.61644e+01
       E -2.15888e+01 -6.13864e+00 -4.22906e+00
3
# CELL(abcABC): 1322.94304  1322.94304  1322.94304    90.00000    90.00000    90.00000  Step:         200  Bead:      11 positions{angstrom}  cell{angstrom}
       E -8.68178e+00 -2.98076e+01 -1.26490e+01
       E  3.35096e+01 -2.03414e+01 -3.11805e+01
       E -5.06308e+01 -1.02889e+01 -1.17030e+01
3
# CELL(abcABC): 1322.94304  1322.94304  1322.94304    90.00000    90.00000    90.00000  Step:         300  Bead:      11 positions{angstrom}  cell{angstrom}
       E -1.41223e+01  9.39301e+00 -2.33027e+01
       E  2.93600e+01  7.81687e+00 -1.57368e+01
       E -3.13718e+01  1.26641e+01  3.87472e+01
3
# CELL(abcABC): 1322.94304  1322.94304  1322.94304    90.00000    90.00000    90.00000  Step:         400  Bead:      11 positions{angstrom}  cell{angstrom}
       E -1.47684e+01  1.84449e+01 -1.43265e+01
       E  1.41961e+01  4.50890e+01 -1.31845e+01
       E -1.68449e+01  3.19393e+00  2.32044e+01
3
# CELL(abcABC): 1322.94304  1322.94304  1322.94304    90.00000    90.00000    90.00000  Step:         500  Bead:      11 positions{angstrom}  cell{angstrom}
       E -2.30442e+01  3.07111e+01 -9.27212e+00
       E  8.53647e+00  1.90581e+01  1.04081e+01
       E -1.50256e+00  3.64727e+01  2.43855e+01
3
# CELL(abcABC): 1322.94304  1322.94304  1322.94304    90.00000    90.00000    90.00000  Step:         600  Bead:      11 positions{angstrom}  cell{angstrom}
       E -2.25812e+01  2.38766e+01 -3.50071e+01
       E  6.05672e+00 -3.58857e+00  4.38027e+01
       E  2.53175e+01  6.82930e+00  2.71036e+01
3
# CELL(abcABC): 1322.94304  1322.94304  1322.94304    90.00000    90.00000    90.00000  Step:         700  Bead:      11 positions{angstrom}  cell{angstrom}
       E -6.78865e+00  3.88680e+01 -2.80847e+01
       E -6.30643e+00  3.97766e+01  3.74985e+01
       E  4.69868e+00 -8.59212e+00  1.01602e+01
3
# CELL(abcABC): 1322.94304  1322.94304  1322.94304    90.00000    90.00000    90.00000  Step:         800  Bead:      11 positions{angstrom}  cell{angstrom}
       E -3.69688e+01  2.33761e+01  1.68743e+00
       E  3.78670e+00  3.55712e+01 -2.74551e+00
       E -3.07489e+01  2.03716e+01  3.63319e+01
3
# CELL(abcABC): 1322.94304  1322.94304  1322.94304    90.00000    90.00000    90.00000  Step:         900  Bead:      11 positions{angstrom}  cell{angstrom}
       E  3.05465e+01 -2.50225e+00  3.11487e+00
       E -2.64661e+00  2.92058e+01 -1.37067e+01
       E -3.62802e+01  5.01644e+00  6.41622e+01
3
# CELL(abcABC): 1322.94304  1322.94304  1322.94304    90.00000    90.00000    90.00000  Step:        1000  Bead:      11 positions{angstrom}  cell{angstrom}
       E  8.80018e+00  1.48967e+01 -1.73974e+01
       E  1.92814e+01 -3.78902e+01 -5.24426e+01
       E -7.30066e+00  1.01298e+01  7.30149e+01
3
# CELL(abcABC): 1322.94304  1322.94304  1322.94304    90.00000    90.00000    90.00000  Step:        1100  Bead:      11 positions{angstrom}  cell{angstrom}
       E  2.40717e+01  7.63905e+00 -6.00052e+01
       E  2.80179e+01 -2.42665e+01 -4.80386e+01
       E -2.19358e+01  1.48790e+01  5.66040e+01
3
# CELL(abcABC): 1322.94304  1322.94304  1322.94304    90.00000    90.00000    90.00000  Step:        1200  Bead:      11 positions{angstrom}  cell{angstrom}
       E  1.05790e+01 -2.83642e+00 -8.70886e+01
       E  3.49400e+01 -3.81306e+01 -5.30159e+01
       E -8.58932e-01  1.75043e+01  2.30566e+01
3
# CELL(abcABC): 1322.94304  1322.94304  1322.94304    90.00000    90.00000    90.00000  Step:        1300  Bead:      11 positions{angstrom}  cell{angstrom}
       E  3.45453e+00  1.92183e+01 -8.57915e+01
       E  1.62172e+01 -2.74634e+01 -6.26109e+01
       E -1.43795e+01  5.05938e+01  3.05274e+01
3
# CELL(abcABC): 1322.94304  1322.94304  1322.94304    90.00000    90.00000    90.00000  Step:        1400  Bead:      11 positions{angstrom}  cell{angstrom}
       E -3.04896e+00  1.40259e+01 -8.73598e+01
       E  1.17387e+01 -3.58249e+01 -6.10205e+01
       E -5.90677e+01  4.05281e+01  7.50498e+00
3
# CELL(abcABC): 1322.94304  1322.94304  1322.94304    90.00000    90.00000    90.00000  Step:        1500  Bead:      11 positions{angstrom}  cell{angstrom}
       E -2.02562e+01  3.09227e+01 -8.03646e+01
       E -1.84045e+01 -1.15119e+01 -2.84993e+01
       E -6.72558e+01  2.20009e+01  2.28818e+01
3
# CELL(abcABC): 1322.94304  1322.94304  1322.94304    90.00000    90.00000    90.00000  Step:        1600  Bead:      11 positions{angstrom}  cell{angstrom}
       E  3.41637e+01  7.36176e+01 -6.59631e+01
       E -1.73450e+01  2.40786e+01  1.08906e+01
       E -3.61255e+01  6.37493e+01 -1.03514e+00
3
# CELL(abcABC): 1322.94304  1322.94304  1322.94304    90.00000    90.00000    90.00000  Step:        1700  Bead:      11 positions{angstrom}  cell{angstrom}
       E  4.07988e+01  2.48707e+01 -5.63245e+00
       E  2.78710e+01  5.15314e+01  1.82883e+01
       E -4.84886e+01  4.81391e+01  8.87312e+00
3
# CELL(abcABC): 1322.94304  1322.94304  1322.94304    90.00000    90.00000    90.00000  Step:        1800  Bead:      11 positions{angstrom}  cell{angstrom}
       E  1.62297e+01  3.41756e+01  6.84789e+00
       E -3.40504e+01  5.32057e+01  1.07577e+01
       E -7.18320e+01  7.04810e+01  5.63047e+01
3
# CELL(abcABC): 1322.94304  1322.94304  1322.94304    90.00000    90.00000    90.00000  Step:        1900  Bead:      11 positions{angstrom}  cell{angstrom}
       E -3.84041e+01  2.63046e+00  5.75126e+01
       E -7.03008e+01  3.89117e+01  4.80678e+01
       E -7.51198e+01  6.61472e+01  2.18130e+01
3
# CELL(abcABC): 1322.94304  1322.94304  1322.94304    90.00000    90.00000    90.00000  Step:        2000  Bead:      11 positions{angstrom}  cell{angstrom}
       E -2.07038e+01 -6.09231e+00  3.75542e+01
       E -6.35864e+01  2.76320e+01  2.40428e+01
       E -1.01683e+02  5.04159e+01  9.31641e+00
3
# CELL(abcABC): 1322.94304  1322.94304  1322.94304    90.00000    90.00000    90.00000  Step:        2100  Bead:      11 positions{angstrom}  cell{angstrom}
       E -2.11946e+01 -5.37125e+01  4.90512e+01
       E -2.37198e+01  2.64282e+01 -4.73056e+01
       E -6.77282e+01  5.08037e+01  7.44006e+00
3
# CELL(abcABC): 1322.94304  1322.94304  1322.94304    90.00000    90.00000    90.00000  Step:        2200  Bead:      11 positions{angstrom}  cell{angstrom}
       E -5.76710e+01  8.73684e-01  5.74470e+01
       E -6.59595e+00 -5.16287e+00 -5.85753e+01
       E -2.67173e+01  4.96583e+01  5.89153e+00
3
# CELL(abcABC): 1322.94304  1322.94304  1322.94304    90.00000    90.00000    90.00000  Step:        2300  Bead:      11 positions{angstrom}  cell{angstrom}
       E -3.89120e+01 -5.04926e+01  5.39989e+01
       E -1.82990e+00 -2.54298e+01 -1.47773e+01
       E -2.30257e+01  1.28170e+01  3.08806e+01
3
# CELL(abcABC): 1322.94304  1322.94304  1322.94304    90.00000    90.00000    90.00000  Step:        2400  Bead:      11 positions{angstrom}  cell{angstrom}
       E -2.68645e+01 -1.67989e+01  2.48064e+01
       E  3.63465e+00 -2.55816e+01 -2.47250e+01
       E -1.03183e+01 -1.37206e+00  3.22414e+01
3
# CELL(abcABC): 1322.94304  1322.94304  1322.94304    90.00000    90.00000    90.00000  Step:        2500  Bead:      11 positions{angstrom}  cell{angstrom}
       E  1.54432e+00 -2.10213e+01  4.30430e+01
       E -2.09853e+01 -3.11501e+01 -4.84371e+01
       E  8.50139e+00 -1.65666e+01  3.34908e+01
3
# CELL(abcABC): 1322.94304  1322.94304  1322.94304    90.00000    90.00000    90.00000  Step:        2600  Bead:      11 positions{angstrom}  cell{angstrom}
       E -7.11188e+00  1.24684e+00  8.94017e+00
       E -5.92092e+01 -3.57046e+01 -5.78057e+01
       E -1.43038e+01 -3.02911e+01  4.99167e+01
3
# CELL(abcABC): 1322.94304  1322.94304  1322.94304    90.00000    90.00000    90.00000  Step:        2700  Bead:      11 positions{angstrom}  cell{angstrom}
       E  4.60333e+00  5.98610e-01  3.28227e+01
       E -7.36961e+01 -4.29029e+01 -4.80333e+01
       E -2.31295e+01 -2.03313e+01  4.59530e+01
3
# CELL(abcABC): 1322.94304  1322.94304  1322.94304    90.00000    90.00000    90.00000  Step:        2800  Bead:      11 positions{angstrom}  cell{angstrom}
       E -1.39704e+01 -2.08000e+01  3.87983e+00
       E -7.89466e+01 -8.40247e+01 -5.84936e+00
       E  7.02187e+00  9.02315e+00  7.55936e+01
3
# CELL(abcABC): 1322.94304  1322.94304  1322.94304    90.00000    90.00000    90.00000  Step:        2900  Bead:      11 positions{angstrom}  cell{angstrom}
       E -3.04331e+01 -1.99470e+01 -4.98644e+00
       E -4.84770e+01 -5.74099e+01 -2.59718e+00
       E  3.70763e+01  1.20935e+01  3.56059e+01
3
# CELL(abcABC): 1322.94304  1322.94304  1322.94304    90.00000    90.00000    90.00000  Step:        3000  Bead:      11 positions{angstrom}  cell{angstrom}
       E -2.57590e+01 -2.28782e+01 -3.33794e+00
       E -4.10958e+01 -8.14872e+01  1.56203e+01
       E  1.81767e+01  3.11890e+01  1.08512e+01
3
# CELL(abcABC): 1322.94304  1322.94304  1322.94304    90.00000    90.00000    90.00000  Step:        3100  Bead:      11 positions{angstrom}  cell{angstrom}
       E  1.07219e+01 -1.48069e+00  3.17994e+01
       E -6.89764e+01 -4.66075e+01  4.53807e+01
       E -1.60312e+01  3.11369e+01  1.80519e+01
3
# CELL(abcABC): 1322.94304  1322.94304  1322.94304    90.00000    90.00000    90.00000  Step:        3200  Bead:      11 positions{angstrom}  cell{angstrom}
       E  1.97549e+01 -1.48766e+01  2.39942e+01
       E -8.44247e+01 -3.43280e+01  7.92533e+01
       E -5.69276e+00  6.46037e+01  3.54653e+01
3
# CELL(abcABC): 1322.94304  1322.94304  1322.94304    90.00000    90.00000    90.00000  Step:        3300  Bead:      11 positions{angstrom}  cell{angstrom}
       E  1.75004e+01 -1.44748e+01  1.05044e+01
       E -9.65591e+01 -5.33600e+01  6.50216e+01
       E -4.01649e+01  4.01214e+01  5.07360e+01
3
# CELL(abcABC): 1322.94304  1322.94304  1322.94304    90.00000    90.00000    90.00000  Step:        3400  Bead:      11 positions{angstrom}  cell{angstrom}
       E  1.04946e+01  2.86091e+01  1.72029e+01
       E -5.10021e+01 -4.39503e+01  7.83236e+01
       E -5.78132e+01  2.78249e+01  6.34817e+01
3
# CELL(abcABC): 1322.94304  1322.94304  1322.94304    90.00000    90.00000    90.00000  Step:        3500  Bead:      11 positions{angstrom}  cell{angstrom}
       E -9.05458e+00  4.06989e+01  2.89312e+01
       E -1.79667e+01 -6.80867e+00  5.41202e+01
       E -4.55802e+01  3.76544e+01  5.58735e+01
3
# CELL(abcABC): 1322.94304  1322.94304  1322.94304    90.00000    90.00000    90.00000  Step:        3600  Bead:      11 positions{angstrom}  cell{angstrom}
       E -2.94041e+01  2.49964e+01  1.35870e+01
       E -1.94523e+01 -4.20716e+01 -3.16797e+00
       E -5.54781e+01  3.68017e+01  1.01385e+01
3
# CELL(abcABC): 1322.94304  1322.94304  1322.94304    90.00000    90.00000    90.00000  Step:        3700  Bead:      11 positions{angstrom}  cell{angstrom}
       E -3.83449e+01  1.44610e+01  1.24463e+01
       E -2.98876e+01 -1.48001e+01  3.68915e+01
       E -4.28044e+01  3.38710e+00 -1.93967e+00
3
# CELL(abcABC): 1322.94304  1322.94304  1322.94304    90.00000    90.00000    90.00000  Step:        3800  Bead:      11 positions{angstrom}  cell{angstrom}
       E -6.72495e+01  3.33275e+00 -4.45686e+01
       E -2.63651e+01 -2.40359e+01 -1.38958e+01
       E -3.60468e+01 -7.54041e+00 -2.45423e+01
3
# CELL(abcABC): 1322.94304  1322.94304  1322.94304    90.00000    90.00000    90.00000  Step:        3900  Bead:      11 positions{angstrom}  cell{angstrom}
       E -8.21986e+01  3.88018e-01 -1.75292e+01
       E  1.10980e+01 -1.21710e+01 -2.46612e+01
       E -5.02334e+01  2.01840e+01 -3.69451e+01
3
# CELL(abcABC): 1322.94304  1322.94304  1322.94304    90.00000    90.00000    90.00000  Step:        4000  Bead:      11 positions{angstrom}  cell{angstrom}
       E -1.01928e+02  5.15207e+01 -5.05425e+01
       E -4.43066e+01  3.57491e+00 -2.46971e+00
       E -6.36461e+01  2.61752e+01 -5.82345e+00
3
# CELL(abcABC): 1322.94304  1322.94304  1322.94304    90.00000    90.00000    90.00000  Step:        4100  Bead:      11 positions{angstrom}  cell{angstrom}
       E -6.87801e+01  2.70533e+01 -4.20004e+01
       E -4.36770e+01  3.83506e+01  4.00804e+01
       E -4.95294e+01  2.96244e+01  5.03881e+01
3
# CELL(abcABC): 1322.94304  1322.94304  1322.94304    90.00000    90.00000    90.00000  Step:        4200  Bead:      11 positions{angstrom}  cell{angstrom}
       E -5.16429e+01  4.03125e+01 -5.54512e+01
       E -3.28719e+01  2.62605e+01  3.79582e+01
       E -3.95521e+01  4.30933e+01  7.12992e+01
3
# CELL(abcABC): 1322.94304  1322.94304  1322.94304    90.00000    90.00000    90.00000  Step:        4300  Bead:      11 positions{angstrom}  cell{angstrom}
       E -3.26729e+01  3.15704e+01 -8.92977e+01
       E -4.65802e+01  3.49161e+01  7.04662e+01
       E -3.28329e+01  3.38322e+01  1.89013e+01
3
# CELL(abcABC): 1322.94304  1322.94304  1322.94304    90.00000    90.00000    90.00000  Step:        4400  Bead:      11 positions{angstrom}  cell{angstrom}
       E -5.42186e+01 -1.09206e+01 -7.87609e+01
       E -5.09453e+01  7.98642e+01  5.11577e+01
       E -7.38774e+01 -2.02874e+00 -3.70492e+00
3
# CELL(abcABC): 1322.94304  1322.94304  1322.94304    90.00000    90.00000    90.00000  Step:        4500  Bead:      11 positions{angstrom}  cell{angstrom}
       E -4.39373e+01  7.19577e-01 -8.76969e+01
       E -5.36532e+01  7.41941e+01  1.04987e+01
       E -2.87897e+01 -1.80666e+01  3.36235e+01
3
# CELL(abcABC): 1322.94304  1322.94304  1322.94304    90.00000    90.00000    90.00000  Step:        4600  Bead:      11 positions{angstrom}  cell{angstrom}
       E  2.28413e+01 -6.19023e-01 -6.71294e+01
       E -7.19570e+01  2.94714e+01 -1.31545e+01
       E  2.28919e+01 -3.53775e+01  4.68729e+01
3
# CELL(abcABC): 1322.94304  1322.94304  1322.94304    90.00000    90.00000    90.00000  Step:        4700  Bead:      11 positions{angstrom}  cell{angstrom}
       E  2.65411e+01  2.59849e+01 -5.30801e+01
       E -5.92503e+01  4.84436e+01 -3.07590e+01
       E  5.64114e+01 -5.05762e+00  2.31915e-02
3
# CELL(abcABC): 1322.94304  1322.94304  1322.94304    90.00000    90.00000    90.00000  Step:        4800  Bead:      11 positions{angstrom}  cell{angstrom}
       E  2.20557e+01  6.12314e+01 -2.20496e+01
       E -6.82876e+01  4.66935e+01 -3.04128e+01
       E  4.63704e+01  2.35319e+01 -1.62943e+01
3
# CELL(abcABC): 1322.94304  1322.94304  1322.94304    90.00000    90.00000    90.00000  Step:        4900  Bead:      11 positions{angstrom}  cell{angstrom}
       E  1.74612e+01  2.22951e+01 -5.24484e+00
       E -3.81174e+01 -1.67616e+01 -2.23525e+01
       E  2.02072e+01  6.03436e+00 -2.54461e+01
3
# CELL(abcABC): 1322.94304  1322.94304  1322.94304    90.00000    90.00000    90.00000  Step:        5000  Bead:      11 positions{angstrom}  cell{angstrom}
       E  4.48316e+00 -4.48944e+00 -8.73823e+00
       E -4.30996e+01 -3.03223e+00 -2.76048e+01
       E -6.29205e+00 -1.92198e+01 -3.32540e+01
3
# CELL(abcABC): 1322.94304  1322.94304  1322.94304    90.00000    90.00000    90.00000  Step:        5100  Bead:      11 positions{angstrom}  cell{angstrom}
       E  1.65640e+01 -3.04633e+00  3.57774e+01
       E -2.61149e+01 -1.65386e+01 -8.20451e+00
       E -8.40284e+00 -1.50883e+01  9.25343e-01
3
# CELL(abcABC): 1322.94304  1322.94304  1322.94304    90.00000    90.00000    90.00000  Step:        5200  Bead:      11 positions{angstrom}  cell{angstrom}
       E  2.28336e+01  2.64642e+01  4.22969e+01
       E -3.93004e+01  1.23278e+01 -1.20165e+01
       E  1.25427e+01 -1.19220e+01  4.84913e+00
3
# CELL(abcABC): 1322.94304  1322.94304  1322.94304    90.00000    90.00000    90.00000  Step:        5300  Bead:      11 positions{angstrom}  cell{angstrom}
       E  9.64337e+00  5.22175e+01  4.10132e+01
       E -2.06706e+01  9.57841e+00 -2.45084e+01
       E  8.84367e+00  4.06486e+01  2.67882e+01
3
# CELL(abcABC): 1322.94304  1322.94304  1322.94304    90.00000    90.00000    90.00000  Step:        5400  Bead:      11 positions{angstrom}  cell{angstrom}
       E  8.44065e+00  3.02143e+01  4.59984e+01
       E -1.17318e+01  1.72783e+01 -4.24408e+01
       E  4.02522e+00  2.43637e+01  4.86596e+01
3
# CELL(abcABC): 1322.94304  1322.94304  1322.94304    90.00000    90.00000    90.00000  Step:        5500  Bead:      11 positions{angstrom}  cell{angstrom}
       E -1.39904e+01  3.01545e+01  4.96253e+01
       E -2.89442e+01  4.01239e+00 -3.10547e+01
       E -1.97580e+01 -1.45925e+01  3.33231e+01
3
# CELL(abcABC): 1322.94304  1322.94304  1322.94304    90.00000    90.00000    90.00000  Step:        5600  Bead:      11 positions{angstrom}  cell{angstrom}
       E -2.67105e+01  8.97669e+00  3.14297e+01
       E -6.14558e+01  5.01122e+00 -4.04471e+01
       E -4.08972e+01 -3.01593e+00  1.57201e+01
3
# CELL(abcABC): 1322.94304  1322.94304  1322.94304    90.00000    90.00000    90.00000  Step:        5700  Bead:      11 positions{angstrom}  cell{angstrom}
       E  1.49139e+00  1.52521e+01  1.49384e+00
       E -3.14831e+01  3.23346e+01  2.25887e+00
       E -1.09191e+01  5.37839e+00  1.97978e+01
3
# CELL(abcABC): 1322.94304  1322.94304  1322.94304    90.00000    90.00000    90.00000  Step:        5800  Bead:      11 positions{angstrom}  cell{angstrom}
       E  1.36187e+01  1.06994e+01 -4.38398e+00
       E -4.65389e+01  4.05663e+01 -1.94904e+01
       E -4.28228e+00  2.04195e+01 -3.91004e+00
3
# CELL(abcABC): 1322.94304  1322.94304  1322.94304    90.00000    90.00000    90.00000  Step:        5900  Bead:      11 positions{angstrom}  cell{angstrom}
       E  2.40154e+01 -1.71522e+01 -8.00711e-01
       E -3.41135e+01  3.71445e+00 -3.96000e+01
       E  1.19363e+01 -9.66721e-02  2.43309e+01
3
# CELL(abcABC): 1322.94304  1322.94304  1322.94304    90.00000    90.00000    90.00000  Step:        6000  Bead:      11 positions{angstrom}  cell{angstrom}
       E  1.95484e+01  4.56920e-01 -1.87199e+01
       E -1.70606e+01 -1.27730e-01 -5.00241e+00
       E -2.07895e-01 -2.91852e+00  1.52714e+01
3
# CELL(abcABC): 1322.94304  1322.94304  1322.94304    90.00000    90.00000    90.00000  Step:        6100  Bead:      11 positions{angstrom}  cell{angstrom}
       E  1.08766e+01 -3.99789e+01 -5.94523e+01
       E  1.39058e+01 -1.09191e+01  3.22765e+01
       E -2.83788e+01 -1.36505e+01  6.06519e-04
3
# CELL(abcABC): 1322.94304  1322.94304  1322.94304    90.00000    90.00000    90.00000  Step:        6200  Bead:      11 positions{angstrom}  cell{angstrom}
       E  1.05787e+01 -1.18729e+01 -9.03558e+01
       E  8.39151e+01  3.90120e+01  2.09210e+00
       E  2.38642e+01  9.37655e+00 -4.88885e+00
3
# CELL(abcABC): 1322.94304  1322.94304  1322.94304    90.00000    90.00000    90.00000  Step:        6300  Bead:      11 positions{angstrom}  cell{angstrom}
       E  2.45942e+01 -3.91262e+01 -9.19820e+01
       E  9.86256e+01 -1.32288e+01 -4.70421e+01
       E  3.04024e+01 -1.19089e+01 -1.97915e+01
3
# CELL(abcABC): 1322.94304  1322.94304  1322.94304    90.00000    90.00000    90.00000  Step:        6400  Bead:      11 positions{angstrom}  cell{angstrom}
       E  4.50158e+01 -6.98552e+01 -8.27918e+01
       E  1.08160e+02 -4.82009e+00 -2.91753e+01
       E -9.87644e+00 -1.60444e+01  1.13925e+01
3
# CELL(abcABC): 1322.94304  1322.94304  1322.94304    90.00000    90.00000    90.00000  Step:        6500  Bead:      11 positions{angstrom}  cell{angstrom}
       E  1.80294e+00 -9.36935e+01 -1.32976e+02
       E  3.10093e+01 -2.92699e+01 -1.67696e+01
       E -3.84129e+00 -3.92485e+01  2.98206e+01
3
# CELL(abcABC): 1322.94304  1322.94304  1322.94304    90.00000    90.00000    90.00000  Step:        6600  Bead:      11 positions{angstrom}  cell{angstrom}
       E -2.54553e+01 -7.42321e+01 -1.07303e+02
       E  3.99145e+01 -2.83735e+01  1.85701e+01
       E  1.23709e+01 -2.28754e+01  2.71067e+01
3
# CELL(abcABC): 1322.94304  1322.94304  1322.94304    90.00000    90.00000    90.00000  Step:        6700  Bead:      11 positions{angstrom}  cell{angstrom}
       E -5.04218e+00 -7.22624e+01 -9.20113e+01
       E  2.71639e+01 -3.52126e+01  9.87957e+00
       E -1.04654e+01 -3.83146e+00  4.26541e+00
3
# CELL(abcABC): 1322.94304  1322.94304  1322.94304    90.00000    90.00000    90.00000  Step:        6800  Bead:      11 positions{angstrom}  cell{angstrom}
       E  3.38640e-02 -5.25317e+01 -4.47892e+01
       E  7.08789e+01 -1.16578e+01  1.33681e+01
       E  3.98286e+00  4.14818e+01 -1.22287e+01
3
# CELL(abcABC): 1322.94304  1322.94304  1322.94304    90.00000    90.00000    90.00000  Step:        6900  Bead:      11 positions{angstrom}  cell{angstrom}
       E  5.03291e+00 -4.64074e+01 -5.34091e+01
       E  1.82748e+01 -1.61895e+01 -2.05687e+01
       E  2.65878e+00  2.78697e+01 -3.28004e-01
3
# CELL(abcABC): 1322.94304  1322.94304  1322.94304    90.00000    90.00000    90.00000  Step:        7000  Bead:      11 positions{angstrom}  cell{angstrom}
       E -1.85040e+01 -6.24533e+01 -4.69732e+01
       E  1.97604e+00  5.03967e+00  2.58216e+01
       E  1.48303e+01  2.86682e+01  3.54770e+01
3
# CELL(abcABC): 1322.94304  1322.94304  1322.94304    90.00000    90.00000    90.00000  Step:        7100  Bead:      11 positions{angstrom}  cell{angstrom}
       E  8.76538e+00 -3.68589e+01 -2.58846e+01
       E -1.77095e+01 -1.15532e+01  4.28835e+01
       E  2.21052e+01  5.08052e+01  4.39985e+01
3
# CELL(abcABC): 1322.94304  1322.94304  1322.94304    90.00000    90.00000    90.00000  Step:        7200  Bead:      11 positions{angstrom}  cell{angstrom}
       E  4.32903e+01 -3.45663e+01 -6.58093e+00
       E -5.18607e+01 -8.12857e+00  2.44467e+01
       E  5.12839e+01  3.38338e+01  9.87297e+00
3
# CELL(abcABC): 1322.94304  1322.94304  1322.94304    90.00000    90.00000    90.00000  Step:        7300  Bead:      11 positions{angstrom}  cell{angstrom}
       E  7.95699e+00 -3.77167e+01 -3.66327e+01
       E -1.87929e+01  6.21569e+01  4.40025e+01
       E  7.44221e+01  1.84099e+01 -3.02255e+01
3
# CELL(abcABC): 1322.94304  1322.94304  1322.94304    90.00000    90.00000    90.00000  Step:        7400  Bead:      11 positions{angstrom}  cell{angstrom}
       E -2.02507e+00 -3.66710e+01 -4.17064e+01
       E -1.97359e+01  4.36798e+01  1.98016e+01
       E  5.00802e+01  5.82752e+01 -1.92473e+01
3
# CELL(abcABC): 1322.94304  1322.94304  1322.94304    90.00000    90.00000    90.00000  Step:        7500  Bead:      11 positions{angstrom}  cell{angstrom}
       E -1.42476e+01 -7.55565e+01 -4.89647e+01
       E -2.06227e+01 -4.82360e+00  1.50061e+01
       E  5.82425e+01  3.34877e+01 -1.62832e+01
3
# CELL(abcABC): 1322.94304  1322.94304  1322.94304    90.00000    90.00000    90.00000  Step:        7600  Bead:      11 positions{angstrom}  cell{angstrom}
       E  7.74327e+00 -8.25343e+01 -3.23611e+01
       E -1.81632e+00 -5.16570e+01 -2.74288e+01
       E  4.63362e+01  3.75683e+01  1.12885e+01
3
# CELL(abcABC): 1322.94304  1322.94304  1322.94304    90.00000    90.00000    90.00000  Step:        7700  Bead:      11 positions{angstrom}  cell{angstrom}
       E  9.92842e+00 -5.44347e+01 -1.59388e+01
       E -6.86755e+00 -5.37472e+01 -4.85347e+01
       E  1.90968e+01  4.76108e+01 -2.87708e+01
3
# CELL(abcABC): 1322.94304  1322.94304  1322.94304    90.00000    90.00000    90.00000  Step:        7800  Bead:      11 positions{angstrom}  cell{angstrom}
       E  2.41048e+01 -4.30503e+01 -2.42493e+01
       E -2.81238e+01 -7.12031e+01 -5.15289e+01
       E  5.41265e+01  1.51452e+01 -6.20844e+01
3
# CELL(abcABC): 1322.94304  1322.94304  1322.94304    90.00000    90.00000    90.00000  Step:        7900  Bead:      11 positions{angstrom}  cell{angstrom}
       E  5.96919e+00 -2.01240e+01 -3.90446e+01
       E  1.11869e+01 -2.82131e+01 -3.73374e+01
       E  1.07516e+01  3.96007e+01 -5.74115e+01
3
# CELL(abcABC): 1322.94304  1322.94304  1322.94304    90.00000    90.00000    90.00000  Step:        8000  Bead:      11 positions{angstrom}  cell{angstrom}
       E  3.09501e+00 -8.63559e+00 -3.11052e+01
       E -8.01848e-01 -1.31146e+01 -1.35116e+01
       E  1.29960e+01  4.40356e+01 -4.04142e+01
3
# CELL(abcABC): 1322.94304  1322.94304  1322.94304    90.00000    90.00000    90.00000  Step:        8100  Bead:      11 positions{angstrom}  cell{angstrom}
       E  3.47614e+01 -2.76311e+00 -5.07971e+01
       E  2.61194e-01  5.65695e+00 -1.33413e+00
       E  2.21284e+01  1.57500e+01 -1.65226e+01
3
# CELL(abcABC): 1322.94304  1322.94304  1322.94304    90.00000    90.00000    90.00000  Step:        8200  Bead:      11 positions{angstrom}  cell{angstrom}
       E  3.43971e+01  5.53573e+01 -4.70608e+01
       E -4.30116e+01  9.86875e-01  3.05919e-01
       E  1.42649e+01 -2.19128e+01  1.58168e+01
3
# CELL(abcABC): 1322.94304  1322.94304  1322.94304    90.00000    90.00000    90.00000  Step:        8300  Bead:      11 positions{angstrom}  cell{angstrom}
       E  3.66501e+01  2.18712e+01 -4.02431e+01
       E -1.94676e+01  3.77520e+01  2.32240e+01
       E  3.85729e+01 -5.07524e+01  3.19833e+01
3
# CELL(abcABC): 1322.94304  1322.94304  1322.94304    90.00000    90.00000    90.00000  Step:        8400  Bead:      11 positions{angstrom}  cell{angstrom}
       E  1.90132e+01  7.33341e+00 -2.46264e+01
       E  1.60551e+01  4.91325e+01  5.99175e+00
       E  3.68772e+01 -4.28420e+01  4.90862e+01
3
# CELL(abcABC): 1322.94304  1322.94304  1322.94304    90.00000    90.00000    90.00000  Step:        8500  Bead:      11 positions{angstrom}  cell{angstrom}
       E -3.43243e+01 -1.63926e+01 -3.25667e+00
       E  3.12303e+01  2.69640e+01 -2.84599e+00
       E  2.33779e+01 -1.88285e+01  2.28046e+01
3
# CELL(abcABC): 1322.94304  1322.94304  1322.94304    90.00000    90.00000    90.00000  Step:        8600  Bead:      11 positions{angstrom}  cell{angstrom}
       E -5.89712e+01  1.92255e+00 -1.22921e+00
       E  5.83842e+00  3.16399e+01 -6.86762e+01
       E  1.79689e+01 -1.60939e+01  3.91537e+01
3
# CELL(abcABC): 1322.94304  1322.94304  1322.94304    90.00000    90.00000    90.00000  Step:        8700  Bead:      11 positions{angstrom}  cell{angstrom}
       E -3.04235e+01  2.44286e+01 -5.97907e+00
       E -2.11789e+01  3.25082e+01 -3.36996e+01
       E  2.67504e+00 -2.61122e+01  3.28438e+01
3
# CELL(abcABC): 1322.94304  1322.94304  1322.94304    90.00000    90.00000    90.00000  Step:        8800  Bead:      11 positions{angstrom}  cell{angstrom}
       E -1.67627e+01  3.48637e+01  2.08123e+01
       E  2.48581e+00 -4.99103e-01  4.02929e+00
       E  3.77862e+01 -6.82911e+01  5.64080e+01
3
# CELL(abcABC): 1322.94304  1322.94304  1322.94304    90.00000    90.00000    90.00000  Step:        8900  Bead:      11 positions{angstrom}  cell{angstrom}
       E -2.06893e+01 -1.58881e+01  2.57170e+01
       E -3.67510e+00 -3.00496e+01  2.86731e+01
       E  3.50679e+00 -4.97849e+01  5.09971e+01
3
# CELL(abcABC): 1322.94304  1322.94304  1322.94304    90.00000    90.00000    90.00000  Step:        9000  Bead:      11 positions{angstrom}  cell{angstrom}
       E -1.91838e+01  1.60063e+01  2.22446e+01
       E -1.99945e+01 -4.27210e+00  5.19705e+01
       E  4.06154e+01 -3.64671e+01  4.47794e+00
3
# CELL(abcABC): 1322.94304  1322.94304  1322.94304    90.00000    90.00000    90.00000  Step:        9100  Bead:      11 positions{angstrom}  cell{angstrom}
       E  1.46593e+01  3.02466e+01 -1.49735e+01
       E -3.56681e+01  9.46197e+00  6.49859e+01
       E  2.92519e+01 -9.21499e+00  3.45825e+01
3
# CELL(abcABC): 1322.94304  1322.94304  1322.94304    90.00000    90.00000    90.00000  Step:        9200  Bead:      11 positions{angstrom}  cell{angstrom}
       E  8.49333e+00  3.30165e+01  1.22126e+01
       E -2.39087e+01  3.72909e+00  4.50229e+01
       E  1.38959e+01 -7.22602e+01  2.28627e+01
3
# CELL(abcABC): 1322.94304  1322.94304  1322.94304    90.00000    90.00000    90.00000  Step:        9300  Bead:      11 positions{angstrom}  cell{angstrom}
       E -1.39630e+00  4.25391e+01 -1.85088e+01
       E -3.16329e+00 -4.41520e+00  1.60763e+01
       E  2.28937e+01 -4.67020e+01  1.87186e+01
3
# CELL(abcABC): 1322.94304  1322.94304  1322.94304    90.00000    90.00000    90.00000  Step:        9400  Bead:      11 positions{angstrom}  cell{angstrom}
       E  2.65338e+01  8.23362e+01 -6.05673e+01
       E -2.58474e+01 -4.26293e+01  2.86397e+01
       E  7.57735e+01 -5.62037e+01  4.41775e+00
3
# CELL(abcABC): 1322.94304  1322.94304  1322.94304    90.00000    90.00000    90.00000  Step:        9500  Bead:      11 positions{angstrom}  cell{angstrom}
       E  1.43394e+01  6.78521e+01 -3.88702e+01
       E -2.60628e+00 -5.15100e+01  5.87154e+01
       E  2.46242e+01 -4.52361e+01  9.51018e+00
3
# CELL(abcABC): 1322.94304  1322.94304  1322.94304    90.00000    90.00000    90.00000  Step:        9600  Bead:      11 positions{angstrom}  cell{angstrom}
       E  5.17147e+00  6.00857e+01 -2.18057e+01
       E  4.45707e+01 -6.04402e+01  2.33653e+01
       E  2.59894e+01 -2.68195e+01 -2.45197e+00
3
# CELL(abcABC): 1322.94304  1322.94304  1322.94304    90.00000    90.00000    90.00000  Step:        9700  Bead:      11 positions{angstrom}  cell{angstrom}
       E -7.63779e+00 -1.13410e+01 -4.58936e+01
       E  8.35223e+01 -5.67735e+01  2.29227e+01
       E  3.20137e+01 -1.70739e+01 -3.06327e+00
3
# CELL(abcABC): 1322.94304  1322.94304  1322.94304    90.00000    90.00000    90.00000  Step:        9800  Bead:      11 positions{angstrom}  cell{angstrom}
       E -4.26474e+00 -5.89634e+01 -6.68555e+01
       E  4.58505e+01 -9.41808e+01 -5.31797e+00
       E  1.01623e+01 -8.75527e+00  4.56691e+00
3