3
# CELL(abcABC): 1322.94304  1322.94304  1322.94304    90.00000    90.00000    90.00000  Step:           0  Bead:       5 positions{angstrom}  cell{angstrom}
       E  0.00000e+00  0.00000e+00  0.00000e+00
       E  0.00000e+00  0.00000e+00  0.00000e+00
       E  0.00000e+00  0.00000e+00  0.00000e+00
3
# CELL(abcABC): 1322.94304  1322.94304  1322.94304    90.00000    90.00000    90.00000  Step:         100  Bead:       5 positions{angstrom}  cell{angstrom}
       E -2.81554e+01 -3.05096e+01  2.68733e-01
       E  2.23963e+00  1.19082e+01 -1.40939e+00
       E -3.01254e+01 -5.92286e+00  9.28322e+00
3
# CELL(abcABC): 1322.94304  1322.94304  1322.94304    90.00000    90.00000    90.00000  Step:         200  Bead:       5 positions{angstrom}  cell{angstrom}
       E -3.15832e+01 -1.08667e+01 -5.37157e+00
       E  2.73641e+01  2.73670e+01 -2.77820e+01
       E -4.41608e+01 -1.89521e-01  3.41237e+01
3
# CELL(abcABC): 1322.94304  1322.94304  1322.94304    90.00000    90.00000    90.00000  Step:         300  Bead:       5 positions{angstrom}  cell{angstrom}
       E -9.75582e+00 -3.45354e+01 -4.46177e+01
       E  5.42672e+00  2.44315e+00 -4.52969e+01
       E -2.42618e+01  2.25583e+01  4.85994e+01
3
# CELL(abcABC): 1322.94304  1322.94304  1322.94304    90.00000    90.00000    90.00000  Step:         400  Bead:       5 positions{angstrom}  cell{angstrom}
       E  6.09850e+00  2.42724e+01 -3.21682e+00
       E  2.93258e+00  5.11414e+00 -1.01261e+01
       E -5.34823e+00  3.90486e+01  5.48525e+01
3
# CELL(abcABC): 1322.94304  1322.94304  1322.94304    90.00000    90.00000    90.00000  Step:         500  Bead:       5 positions{angstrom}  cell{angstrom}
       E -2.06297e+01  2.08882e+00 -4.16088e+01
       E -4.70351e+00 -7.86931e+00  2.06144e+01
       E  6.25435e-01  3.57454e+01 -1.06089e+01
3
# CELL(abcABC): 1322.94304  1322.94304  1322.94304    90.00000    90.00000    90.00000  Step:         600  Bead:       5 positions{angstrom}  cell{angstrom}
       E -2.77638e+01  1.11701e+01 -5.50065e+01
       E  4.65539e+00 -1.46974e+01  3.40842e+01
       E -1.93785e+01  1.71451e+01  2.74980e+01
3
# CELL(abcABC): 1322.94304  1322.94304  1322.94304    90.00000    90.00000    90.00000  Step:         700  Bead:       5 positions{angstrom}  cell{angstrom}
       E -8.22640e+00  1.26148e+01 -2.64505e+01
       E -1.23318e+01  4.07358e+00  1.20455e+01
       E -5.84842e+00  1.55869e+01  2.81732e+01
3
# CELL(abcABC): 1322.94304  1322.94304  1322.94304    90.00000    90.00000    90.00000  Step:         800  Bead:       5 positions{angstrom}  cell{angstrom}
       E -3.01399e+01  1.64694e+00 -3.05121e+01
       E -2.18410e+01  2.47854e+01 -1.20061e+01
       E -4.42977e+01  2.97697e+01  5.06711e+01
3
# CELL(abcABC): 1322.94304  1322.94304  1322.94304    90.00000    90.00000    90.00000  Step:         900  Bead:       5 positions{angstrom}  cell{angstrom}
       E  1.94908e+01 -2.14307e+01  4.50329e+00
       E  2.41768e+01  4.63154e+00  2.98338e+00
       E -3.22550e+01  3.16852e+01  7.41824e+01
3
# CELL(abcABC): 1322.94304  1322.94304  1322.94304    90.00000    90.00000    90.00000  Step:        1000  Bead:       5 positions{angstrom}  cell{angstrom}
       E -3.46404e+01  5.81423e+00 -6.22110e+01
       E  1.49671e+01 -3.84756e+00 -8.92775e+00
       E -1.95780e+01  1.72047e+01  8.72102e+01
3
# CELL(abcABC): 1322.94304  1322.94304  1322.94304    90.00000    90.00000    90.00000  Step:        1100  Bead:       5 positions{angstrom}  cell{angstrom}
       E  2.13252e+00  2.64973e+01 -4.40043e+01
       E  5.08416e+01 -9.94445e+00 -5.60075e+01
       E -4.57528e+01 -1.35462e+01  4.34419e+01
3
# CELL(abcABC): 1322.94304  1322.94304  1322.94304    90.00000    90.00000    90.00000  Step:        1200  Bead:       5 positions{angstrom}  cell{angstrom}
       E  1.77021e+01  1.94821e+01 -4.91506e+01
       E  3.03082e+01 -2.36720e+01 -9.63696e+01
       E -2.68029e+01  1.80973e+01  3.31266e+01
3
# CELL(abcABC): 1322.94304  1322.94304  1322.94304    90.00000    90.00000    90.00000  Step:        1300  Bead:       5 positions{angstrom}  cell{angstrom}
       E  8.82062e+00  4.75853e+00 -6.14982e+01
       E -1.39227e+01 -6.78282e+01 -4.74653e+01
       E -4.55582e+01  4.09653e+01  1.37920e+01
3
# CELL(abcABC): 1322.94304  1322.94304  1322.94304    90.00000    90.00000    90.00000  Step:        1400  Bead:       5 positions{angstrom}  cell{angstrom}
       E -3.68106e+01  1.49925e+01 -6.49530e+01
       E -9.40022e+00  2.11014e+00 -4.95924e+01
       E -4.63032e+01  1.08600e+01  3.12214e+01
3
# CELL(abcABC): 1322.94304  1322.94304  1322.94304    90.00000    90.00000    90.00000  Step:        1500  Bead:       5 positions{angstrom}  cell{angstrom}
       E -5.22640e+01  1.47843e+01 -5.83511e+01
       E  8.18647e+00 -1.69024e+01 -2.45120e+01
       E -4.56157e+01  4.01033e+01  3.74268e+01
3
# CELL(abcABC): 1322.94304  1322.94304  1322.94304    90.00000    90.00000    90.00000  Step:        1600  Bead:       5 positions{angstrom}  cell{angstrom}
       E -3.16254e+01  5.41092e+01 -2.62102e+01
       E -2.27658e+00 -6.12700e+00  6.79657e+00
       E -1.35163e+01  6.01385e+01 -4.31766e+00
3
# CELL(abcABC): 1322.94304  1322.94304  1322.94304    90.00000    90.00000    90.00000  Step:        1700  Bead:       5 positions{angstrom}  cell{angstrom}
       E -1.06358e+01  4.37646e+01 -1.41809e+01
       E -1.66828e+01  1.52977e+01  6.85854e+00
       E -1.66937e+01  7.59273e+01  2.63443e+01
3
# CELL(abcABC): 1322.94304  1322.94304  1322.94304    90.00000    90.00000    90.00000  Step:        1800  Bead:       5 positions{angstrom}  cell{angstrom}
       E -3.46700e+01  4.70052e+01  1.70728e+01
       E -2.26249e+01  2.15292e+01  4.68289e+00
       E -6.40321e+01  6.15423e+01  5.72117e+01
3
# CELL(abcABC): 1322.94304  1322.94304  1322.94304    90.00000    90.00000    90.00000  Step:        1900  Bead:       5 positions{angstrom}  cell{angstrom}
       E -2.30759e+01  1.81396e+01  3.27187e+01
       E -7.70557e+01 -1.24836e+00  1.36740e+01
       E -7.36743e+01  6.04913e+01  5.23511e+01
3
# CELL(abcABC): 1322.94304  1322.94304  1322.94304    90.00000    90.00000    90.00000  Step:        2000  Bead:       5 positions{angstrom}  cell{angstrom}
       E  1.34233e+01  2.98790e+00  2.53168e+01
       E -5.05996e+01  1.97958e+01  3.64475e+01
       E -7.67609e+01  4.64930e+01  5.00947e+01
3
# CELL(abcABC): 1322.94304  1322.94304  1322.94304    90.00000    90.00000    90.00000  Step:        2100  Bead:       5 positions{angstrom}  cell{angstrom}
       E -2.14302e+01  3.07703e+00  1.82365e+01
       E -3.51598e+01  1.10898e+00  1.12661e+01
       E -6.31486e+01  3.66491e+01  1.75098e+01
3
# CELL(abcABC): 1322.94304  1322.94304  1322.94304    90.00000    90.00000    90.00000  Step:        2200  Bead:       5 positions{angstrom}  cell{angstrom}
       E -1.88122e+01 -2.28255e+00  2.43896e+01
       E -4.43803e+01 -3.26295e+01 -2.45459e+01
       E -2.82115e+01  5.78842e+00  5.27452e+01
3
# CELL(abcABC): 1322.94304  1322.94304  1322.94304    90.00000    90.00000    90.00000  Step:        2300  Bead:       5 positions{angstrom}  cell{angstrom}
       E  2.56494e+00 -1.46947e+01  2.83725e+01
       E -8.47632e+00 -6.76755e+01 -2.05168e+01
       E -1.43817e+01  2.57904e+01  2.56981e+01
3
# CELL(abcABC): 1322.94304  1322.94304  1322.94304    90.00000    90.00000    90.00000  Step:        2400  Bead:       5 positions{angstrom}  cell{angstrom}
       E -6.31527e+00 -1.58113e+01  2.86084e+01
       E  2.03924e+01 -5.45206e+01 -9.33514e+00
       E  2.08905e+00  3.07271e-01  4.66165e+01
3
# CELL(abcABC): 1322.94304  1322.94304  1322.94304    90.00000    90.00000    90.00000  Step:        2500  Bead:       5 positions{angstrom}  cell{angstrom}
       E  5.60538e+00  4.55435e+00  4.43790e+01
       E -4.62351e+00 -2.60451e+01 -4.14205e+01
       E -3.33594e+01 -5.16167e+01  7.13523e+01
3
# CELL(abcABC): 1322.94304  1322.94304  1322.94304    90.00000    90.00000    90.00000  Step:        2600  Bead:       5 positions{angstrom}  cell{angstrom}
       E  3.91870e+01 -3.85535e+01  8.11286e+01
       E -2.29060e+01 -3.81757e+01 -5.97984e+01
       E -1.33511e+01 -2.48321e+01  7.24267e+01
3
# CELL(abcABC): 1322.94304  1322.94304  1322.94304    90.00000    90.00000    90.00000  Step:        2700  Bead:       5 positions{angstrom}  cell{angstrom}
       E  3.22661e+01 -3.68934e+01  6.22502e+01
       E -8.12902e+01 -4.72483e+01 -2.87917e+01
       E -3.55307e+01 -2.41556e+01  7.47650e+01
3
# CELL(abcABC): 1322.94304  1322.94304  1322.94304    90.00000    90.00000    90.00000  Step:        2800  Bead:       5 positions{angstrom}  cell{angstrom}
       E -1.06723e+01 -3.24509e+01 -1.05197e+01
       E -2.48462e+01 -3.99768e+01 -4.27238e+01
       E  1.50814e+00 -1.26042e+01  4.49984e+01
3
# CELL(abcABC): 1322.94304  1322.94304  1322.94304    90.00000    90.00000    90.00000  Step:        2900  Bead:       5 positions{angstrom}  cell{angstrom}
       E -3.28457e+01 -4.62289e+01 -3.42445e+01
       E -2.66187e+01 -5.10463e+01 -1.98531e+01
       E  2.36609e+01 -2.88882e+01  5.63278e+01
3
# CELL(abcABC): 1322.94304  1322.94304  1322.94304    90.00000    90.00000    90.00000  Step:        3000  Bead:       5 positions{angstrom}  cell{angstrom}
       E  1.50860e+01 -4.02026e+01 -3.18479e+01
       E -3.40018e+01 -4.93734e+01  3.78639e+00
       E  3.92803e+00 -8.36008e-01  3.27567e+01
3
# CELL(abcABC): 1322.94304  1322.94304  1322.94304    90.00000    90.00000    90.00000  Step:        3100  Bead:       5 positions{angstrom}  cell{angstrom}
       E  9.64428e+00 -3.83512e+01  3.34920e+01
       E -2.87847e+01 -6.95473e+01  4.14237e+01
       E -3.72406e+01  1.35485e+01  1.05948e+01
3
# CELL(abcABC): 1322.94304  1322.94304  1322.94304    90.00000    90.00000    90.00000  Step:        3200  Bead:       5 positions{angstrom}  cell{angstrom}
       E  4.32234e+00  2.74041e+01  5.23346e+01
       E -7.09136e+01 -6.09118e+01  4.10218e+01
       E -1.85265e+01  2.61431e+01  2.12754e+01
3
# CELL(abcABC): 1322.94304  1322.94304  1322.94304    90.00000    90.00000    90.00000  Step:        3300  Bead:       5 positions{angstrom}  cell{angstrom}
       E -1.02834e+01  2.54863e+01  3.52228e+01
       E -7.53729e+01 -2.62140e+01  5.55130e+01
       E -1.74343e+01  6.28548e+00  4.64144e+01
3
# CELL(abcABC): 1322.94304  1322.94304  1322.94304    90.00000    90.00000    90.00000  Step:        3400  Bead:       5 positions{angstrom}  cell{angstrom}
       E -3.40501e+00  3.02931e+01  2.99232e+01
       E -7.04986e+01 -5.93043e+01  4.23764e+01
       E -5.85785e+01  2.35273e+01  8.08368e+01
3
# CELL(abcABC): 1322.94304  1322.94304  1322.94304    90.00000    90.00000    90.00000  Step:        3500  Bead:       5 positions{angstrom}  cell{angstrom}
       E -1.65827e+01  1.68317e+01  1.96620e+01
       E -5.38968e+01 -5.60185e+01  4.68650e+01
       E -7.07620e+01  1.33090e+01  7.83365e+01
3
# CELL(abcABC): 1322.94304  1322.94304  1322.94304    90.00000    90.00000    90.00000  Step:        3600  Bead:       5 positions{angstrom}  cell{angstrom}
       E -2.78473e+01  1.61033e+01  8.58906e+00
       E -2.13992e+01 -4.19515e+01  1.33372e+01
       E -9.80546e+01 -5.98235e+00  3.45111e+01
3
# CELL(abcABC): 1322.94304  1322.94304  1322.94304    90.00000    90.00000    90.00000  Step:        3700  Bead:       5 positions{angstrom}  cell{angstrom}
       E -5.27060e+01 -6.93148e+00 -3.05876e+01
       E -1.03346e+01 -2.16322e+01  2.26934e+01
       E -5.86798e+01 -3.16414e+01  4.42381e+00
3
# CELL(abcABC): 1322.94304  1322.94304  1322.94304    90.00000    90.00000    90.00000  Step:        3800  Bead:       5 positions{angstrom}  cell{angstrom}
       E -5.59402e+01  2.55539e+00 -4.52446e+01
       E -2.69491e+01 -2.91884e+01 -1.20147e+01
       E -4.19284e+01 -3.30503e+01 -2.11507e+01
3
# CELL(abcABC): 1322.94304  1322.94304  1322.94304    90.00000    90.00000    90.00000  Step:        3900  Bead:       5 positions{angstrom}  cell{angstrom}
       E -5.54689e+01  4.92816e+00  3.29433e+00
       E -2.81690e+00 -9.98015e+00 -4.87776e+01
       E -4.61673e+01 -6.73975e+01  1.12033e+01
3
# CELL(abcABC): 1322.94304  1322.94304  1322.94304    90.00000    90.00000    90.00000  Step:        4000  Bead:       5 positions{angstrom}  cell{angstrom}
       E -5.04367e+01  2.88160e+00 -1.56803e+01
       E -4.33454e+01 -7.80444e+00  1.31840e+01
       E -6.75505e+01 -2.26844e+01 -2.89713e+01
3
# CELL(abcABC): 1322.94304  1322.94304  1322.94304    90.00000    90.00000    90.00000  Step:        4100  Bead:       5 positions{angstrom}  cell{angstrom}
       E -7.24566e+01  5.13065e+01 -6.31841e+01
       E -2.99657e+01  5.01047e+01  2.74890e+01
       E -7.69651e+01  2.76659e+01  2.59454e+01
3
# CELL(abcABC): 1322.94304  1322.94304  1322.94304    90.00000    90.00000    90.00000  Step:        4200  Bead:       5 positions{angstrom}  cell{angstrom}
       E -1.09211e+01  5.31304e+01 -6.38790e+01
       E -3.86689e+01  3.45502e+01  3.65653e+01
       E -9.52570e+01 -1.77829e+00  3.91129e-01
3
# CELL(abcABC): 1322.94304  1322.94304  1322.94304    90.00000    90.00000    90.00000  Step:        4300  Bead:       5 positions{angstrom}  cell{angstrom}
       E -2.16315e+01  1.88241e+01 -7.67270e+01
       E -4.28607e+01  1.19946e+01  6.12093e+01
       E -7.80120e+01 -2.36662e+01  1.56613e+01
3
# CELL(abcABC): 1322.94304  1322.94304  1322.94304    90.00000    90.00000    90.00000  Step:        4400  Bead:       5 positions{angstrom}  cell{angstrom}
       E -3.11792e+01  1.99221e+01 -9.45601e+01
       E -7.18222e+01  6.26304e+01  2.73405e+01
       E -6.22840e+01 -1.39047e+01  3.20686e+01
3
# CELL(abcABC): 1322.94304  1322.94304  1322.94304    90.00000    90.00000    90.00000  Step:        4500  Bead:       5 positions{angstrom}  cell{angstrom}
       E -2.45447e+01  2.75830e+01 -5.87825e+01
       E -5.77906e+01  9.36327e+01  1.80631e+01
       E -2.88898e+01 -1.40821e+01  1.91264e+01
3
# CELL(abcABC): 1322.94304  1322.94304  1322.94304    90.00000    90.00000    90.00000  Step:        4600  Bead:       5 positions{angstrom}  cell{angstrom}
       E  1.53206e+01  3.98842e+01 -6.13695e+01
       E -7.75465e+01  3.00621e+01  1.38151e+00
       E -3.58662e+01 -1.59783e+00  3.49094e+01
3
# CELL(abcABC): 1322.94304  1322.94304  1322.94304    90.00000    90.00000    90.00000  Step:        4700  Bead:       5 positions{angstrom}  cell{angstrom}
       E  7.24910e+00  3.27186e+01 -5.29984e+01
       E -6.97397e+01  5.19807e+01 -1.13979e+01
       E -1.03673e+01  4.64032e+01 -2.87534e+00
3
# CELL(abcABC): 1322.94304  1322.94304  1322.94304    90.00000    90.00000    90.00000  Step:        4800  Bead:       5 positions{angstrom}  cell{angstrom}
       E  2.14316e+01  4.77718e+01 -2.04631e+01
       E -8.26665e+01  1.62610e+01 -2.88321e+01
       E  1.64504e+01  2.34809e+01 -5.04188e+01
3
# CELL(abcABC): 1322.94304  1322.94304  1322.94304    90.00000    90.00000    90.00000  Step:        4900  Bead:       5 positions{angstrom}  cell{angstrom}
       E  5.45103e+01  4.50710e+01 -1.82129e+01
       E -9.21148e+01 -2.40656e+01 -3.04288e+01
       E -5.39167e+00  4.38166e+01 -6.73810e+01
3
# CELL(abcABC): 1322.94304  1322.94304  1322.94304    90.00000    90.00000    90.00000  Step:        5000  Bead:       5 positions{angstrom}  cell{angstrom}
       E  6.79044e+01  1.68051e+01  2.33216e+01
       E -5.30616e+01 -5.69849e+01  3.78987e+00
       E -1.52481e+01  1.99901e+01 -6.25600e+01
3
# CELL(abcABC): 1322.94304  1322.94304  1322.94304    90.00000    90.00000    90.00000  Step:        5100  Bead:       5 positions{angstrom}  cell{angstrom}
       E  1.39675e+01  2.84935e+01  1.58403e+01
       E -5.60387e+01 -4.96455e+01  1.33596e+01
       E  2.08548e+01 -1.62041e+01 -6.85324e+00
3
# CELL(abcABC): 1322.94304  1322.94304  1322.94304    90.00000    90.00000    90.00000  Step:        5200  Bead:       5 positions{angstrom}  cell{angstrom}
       E  2.57562e+01  5.53926e+01  1.28229e+01
       E -3.27909e+01 -2.52576e+00 -5.09467e+00
       E  8.06069e+00  1.80266e+01 -8.15355e+00
3
# CELL(abcABC): 1322.94304  1322.94304  1322.94304    90.00000    90.00000    90.00000  Step:        5300  Bead:       5 positions{angstrom}  cell{angstrom}
       E  2.01456e+01  3.43879e+01  4.63260e+01
       E -1.39068e+01  3.63833e+01 -1.46026e+01
       E  9.14095e-01  3.48538e+01  1.45004e+01
3
# CELL(abcABC): 1322.94304  1322.94304  1322.94304    90.00000    90.00000    90.00000  Step:        5400  Bead:       5 positions{angstrom}  cell{angstrom}
       E  6.40791e+00  1.21761e+01  5.78379e+01
       E -3.28081e+01 -1.70684e+01 -3.39365e+01
       E -6.06173e+00  3.01680e+01  4.04160e+01
3
# CELL(abcABC): 1322.94304  1322.94304  1322.94304    90.00000    90.00000    90.00000  Step:        5500  Bead:       5 positions{angstrom}  cell{angstrom}
       E -6.87048e+00  3.55695e+01  3.90001e+01
       E -2.64055e+01  1.51419e+01 -1.28639e+01
       E -2.83145e+00  8.08570e+00  2.58680e+01
3
# CELL(abcABC): 1322.94304  1322.94304  1322.94304    90.00000    90.00000    90.00000  Step:        5600  Bead:       5 positions{angstrom}  cell{angstrom}
       E -5.38274e+00  3.83156e+01  1.38982e+01
       E  3.39692e+00  2.84531e+01 -2.60650e+01
       E -9.97880e-01  2.10365e+01  4.04322e+01
3
# CELL(abcABC): 1322.94304  1322.94304  1322.94304    90.00000    90.00000    90.00000  Step:        5700  Bead:       5 positions{angstrom}  cell{angstrom}
       E -1.72979e+01  4.01199e+01  1.19938e+01
       E -5.89255e+00  4.21945e+01 -1.14192e+01
       E -3.49848e+01  2.88201e+01 -1.08305e+01
3
# CELL(abcABC): 1322.94304  1322.94304  1322.94304    90.00000    90.00000    90.00000  Step:        5800  Bead:       5 positions{angstrom}  cell{angstrom}
       E -3.44552e+01  2.24165e+01  1.88905e+01
       E -3.08622e+01  2.43830e+01  2.01192e+01
       E -1.48217e+01 -1.37819e+00  1.10656e+01
3
# CELL(abcABC): 1322.94304  1322.94304  1322.94304    90.00000    90.00000    90.00000  Step:        5900  Bead:       5 positions{angstrom}  cell{angstrom}
       E -1.54890e+01 -1.16769e+01  8.74615e+00
       E -4.06475e+01  2.49586e+01 -1.42914e+01
       E -3.54157e+01 -2.39085e+01 -1.61111e+01
3
# CELL(abcABC): 1322.94304  1322.94304  1322.94304    90.00000    90.00000    90.00000  Step:        6000  Bead:       5 positions{angstrom}  cell{angstrom}
       E  2.25363e+00 -3.04010e+01 -4.73063e+00
       E -2.08789e+01  3.48623e+01 -3.08110e+01
       E  4.23278e+01 -4.86160e+01 -4.33451e+00
3
# CELL(abcABC): 1322.94304  1322.94304  1322.94304    90.00000    90.00000    90.00000  Step:        6100  Bead:       5 positions{angstrom}  cell{angstrom}
       E  2.75764e+01 -2.07624e+01 -5.77134e+01
       E  8.59692e+00  1.28979e+01  2.47713e+01
       E  1.82080e+01 -1.37969e+01 -3.50005e+01
3
# CELL(abcABC): 1322.94304  1322.94304  1322.94304    90.00000    90.00000    90.00000  Step:        6200  Bead:       5 positions{angstrom}  cell{angstrom}
       E  4.01986e+01 -5.32584e+01 -9.29179e+01
       E  5.52263e+01 -6.02822e+01  7.37922e+00
       E  2.06993e+01 -6.48097e+00 -4.74674e+01
3
# CELL(abcABC): 1322.94304  1322.94304  1322.94304    90.00000    90.00000    90.00000  Step:        6300  Bead:       5 positions{angstrom}  cell{angstrom}
       E  4.78963e+01 -4.52861e+01 -9.02906e+01
       E  6.49200e+01 -2.70140e+01 -6.89348e+00
       E  1.16174e+01 -3.32281e+01 -1.31746e+00
3
# CELL(abcABC): 1322.94304  1322.94304  1322.94304    90.00000    90.00000    90.00000  Step:        6400  Bead:       5 positions{angstrom}  cell{angstrom}
       E  1.91079e+01 -5.58295e+01 -1.02814e+02
       E  7.85385e+01 -5.12358e+01 -3.47792e+01
       E  2.80118e+00 -3.83371e+01  3.69470e+01
3
# CELL(abcABC): 1322.94304  1322.94304  1322.94304    90.00000    90.00000    90.00000  Step:        6500  Bead:       5 positions{angstrom}  cell{angstrom}
       E -2.38003e+01 -1.06007e+02 -1.24596e+02
       E  5.67381e+01 -2.38855e+01 -4.01092e+01
       E -4.18700e+00 -3.68982e+01  1.64561e+01
3
# CELL(abcABC): 1322.94304  1322.94304  1322.94304    90.00000    90.00000    90.00000  Step:        6600  Bead:       5 positions{angstrom}  cell{angstrom}
       E -3.64194e+00 -8.26227e+01 -1.35857e+02
       E -8.39671e+00 -1.88290e+01 -3.27847e+01
       E  1.28881e+01 -7.51167e+00  4.26712e+01
3
# CELL(abcABC): 1322.94304  1322.94304  1322.94304    90.00000    90.00000    90.00000  Step:        6700  Bead:       5 positions{angstrom}  cell{angstrom}
       E  3.64483e+00 -8.45721e+01 -1.25793e+02
       E -2.97427e+00 -4.18558e+01 -2.40299e+01
       E -8.44884e+00  9.38922e-01  2.00454e+00
3
# CELL(abcABC): 1322.94304  1322.94304  1322.94304    90.00000    90.00000    90.00000  Step:        6800  Bead:       5 positions{angstrom}  cell{angstrom}
       E -7.22691e+00 -7.33092e+01 -5.31011e+01
       E  1.21529e+01 -3.47202e+01 -9.47639e+00
       E -1.50909e+01  1.56558e+01  2.89259e+01
3
# CELL(abcABC): 1322.94304  1322.94304  1322.94304    90.00000    90.00000    90.00000  Step:        6900  Bead:       5 positions{angstrom}  cell{angstrom}
       E -5.55314e+00 -5.66773e+01 -5.03198e+01
       E  2.13769e+01 -1.66023e+01 -1.74233e+01
       E -1.55236e+01  3.65610e+01  1.55956e+01
3
# CELL(abcABC): 1322.94304  1322.94304  1322.94304    90.00000    90.00000    90.00000  Step:        7000  Bead:       5 positions{angstrom}  cell{angstrom}
       E -5.85603e+01 -2.42595e+01 -2.86963e+01
       E -3.96817e+00  1.37655e+01 -1.58252e+01
       E  1.31773e+01  2.77257e+01  3.36446e+01
3
# CELL(abcABC): 1322.94304  1322.94304  1322.94304    90.00000    90.00000    90.00000  Step:        7100  Bead:       5 positions{angstrom}  cell{angstrom}
       E -2.35458e+01 -2.53145e+01 -2.43050e+01
       E -2.21121e+01  4.10959e+01  1.62046e+01
       E -1.10692e+01  2.89477e+01  4.53028e+01
3
# CELL(abcABC): 1322.94304  1322.94304  1322.94304    90.00000    90.00000    90.00000  Step:        7200  Bead:       5 positions{angstrom}  cell{angstrom}
       E  9.13334e+00 -3.57529e+01 -4.22391e+01
       E -2.14413e+01  4.56187e+01  3.51244e+01
       E  6.18135e+01  4.06541e+01  1.28305e+01
3
# CELL(abcABC): 1322.94304  1322.94304  1322.94304    90.00000    90.00000    90.00000  Step:        7300  Bead:       5 positions{angstrom}  cell{angstrom}
       E -5.36251e+00 -2.78142e+01 -2.81875e+01
       E  9.60237e+00  4.42242e+01  1.90249e+01
       E  8.73065e+01  1.97498e+01  6.93679e+00
3
# CELL(abcABC): 1322.94304  1322.94304  1322.94304    90.00000    90.00000    90.00000  Step:        7400  Bead:       5 positions{angstrom}  cell{angstrom}
       E -2.24650e+00 -2.52623e+01  9.72706e-01
       E -2.05939e+01  2.88535e+01  6.87629e+01
       E  9.28121e+01  5.28585e+01 -3.23189e+01
3
# CELL(abcABC): 1322.94304  1322.94304  1322.94304    90.00000    90.00000    90.00000  Step:        7500  Bead:       5 positions{angstrom}  cell{angstrom}
       E -1.84896e+01 -6.03603e+01 -2.60147e+01
       E -4.72022e+01  1.63720e+01  1.68649e+01
       E  8.61907e+01  5.85810e+01 -3.13949e+01
3
# CELL(abcABC): 1322.94304  1322.94304  1322.94304    90.00000    90.00000    90.00000  Step:        7600  Bead:       5 positions{angstrom}  cell{angstrom}
       E -4.39101e+01 -8.17969e+01 -1.94443e+01
       E -1.78033e+01 -4.82784e+01  7.03901e+00
       E  9.41051e+01  5.05307e+01 -3.73228e+01
3
# CELL(abcABC): 1322.94304  1322.94304  1322.94304    90.00000    90.00000    90.00000  Step:        7700  Bead:       5 positions{angstrom}  cell{angstrom}
       E  1.86317e+01 -6.75929e+01 -5.01869e+00
       E  3.76267e+00 -6.05229e+01 -1.92023e+01
       E  5.28136e+01  2.17116e+01 -1.93911e+01
3
# CELL(abcABC): 1322.94304  1322.94304  1322.94304    90.00000    90.00000    90.00000  Step:        7800  Bead:       5 positions{angstrom}  cell{angstrom}
       E  9.88160e+00 -3.75295e+01 -5.37481e+01
       E  1.17397e+01 -2.91653e+01 -4.65757e+00
       E  4.51662e+01  1.54851e+01 -5.34328e+01
3
# CELL(abcABC): 1322.94304  1322.94304  1322.94304    90.00000    90.00000    90.00000  Step:        7900  Bead:       5 positions{angstrom}  cell{angstrom}
       E  1.45273e+01  2.05961e+00 -4.81077e+01
       E  4.36389e+01 -4.06410e+01 -2.78793e+01
       E  6.44298e+01  4.56747e+01 -3.76123e+01
3
# CELL(abcABC): 1322.94304  1322.94304  1322.94304    90.00000    90.00000    90.00000  Step:        8000  Bead:       5 positions{angstrom}  cell{angstrom}
       E  1.06842e+00  2.49224e+01 -1.61451e+01
       E  2.92564e+01 -3.09540e+01 -5.13562e+01
       E  1.25021e+01  4.02443e+01 -1.89142e+01
3
# CELL(abcABC): 1322.94304  1322.94304  1322.94304    90.00000    90.00000    90.00000  Step:        8100  Bead:       5 positions{angstrom}  cell{angstrom}
       E  2.73244e+00 -6.89014e+00 -1.38269e+01
       E  1.78217e+01 -1.80994e+01 -2.28269e+01
       E  1.66706e+01 -7.68523e+00  5.16142e+00
3
# CELL(abcABC): 1322.94304  1322.94304  1322.94304    90.00000    90.00000    90.00000  Step:        8200  Bead:       5 positions{angstrom}  cell{angstrom}
       E  3.22787e+01  2.69114e+01 -4.28220e+01
       E  1.74154e+01  2.64681e+01 -1.54961e+00
       E  4.44456e+01 -5.75676e+00  3.08076e+01
3
# CELL(abcABC): 1322.94304  1322.94304  1322.94304    90.00000    90.00000    90.00000  Step:        8300  Bead:       5 positions{angstrom}  cell{angstrom}
       E  1.22731e+01 -4.03238e+00 -3.84905e+01
       E  2.11381e+01  2.18303e+01  2.78941e+01
       E  8.56281e+00 -3.64249e+01  3.65205e+01
3
# CELL(abcABC): 1322.94304  1322.94304  1322.94304    90.00000    90.00000    90.00000  Step:        8400  Bead:       5 positions{angstrom}  cell{angstrom}
       E  2.94795e+01  3.38451e+01 -2.64110e+01
       E  4.74963e+00 -9.24920e+00  2.51570e+01
       E  3.69825e+01  1.82448e+01  1.43541e+01
3
# CELL(abcABC): 1322.94304  1322.94304  1322.94304    90.00000    90.00000    90.00000  Step:        8500  Bead:       5 positions{angstrom}  cell{angstrom}
       E -3.39849e+01  1.01422e+01 -7.55085e+00
       E  5.62681e+01 -1.17116e-02  1.13649e+01
       E  4.73405e+01 -1.41192e+01  3.79800e+01
3
# CELL(abcABC): 1322.94304  1322.94304  1322.94304    90.00000    90.00000    90.00000  Step:        8600  Bead:       5 positions{angstrom}  cell{angstrom}
       E -4.17669e+01  2.45025e+01 -2.63110e+00
       E  4.06448e+01  4.06446e+01 -1.23753e+01
       E  3.53962e+01 -1.68001e+01  3.82510e+01
3
# CELL(abcABC): 1322.94304  1322.94304  1322.94304    90.00000    90.00000    90.00000  Step:        8700  Bead:       5 positions{angstrom}  cell{angstrom}
       E -7.64839e-01  2.77777e+01 -2.51836e+01
       E  4.52432e+01 -1.76118e+01  7.29556e+00
       E  5.23764e+01 -3.17291e+01  2.22777e+01
3
# CELL(abcABC): 1322.94304  1322.94304  1322.94304    90.00000    90.00000    90.00000  Step:        8800  Bead:       5 positions{angstrom}  cell{angstrom}
       E -2.21941e+01  3.48385e+01  9.12970e+00
       E  4.25164e+00  1.64682e+01 -3.78096e+00
       E  3.41488e+01 -7.62799e+01  6.62289e+01
3
# CELL(abcABC): 1322.94304  1322.94304  1322.94304    90.00000    90.00000    90.00000  Step:        8900  Bead:       5 positions{angstrom}  cell{angstrom}
       E  7.89905e+00  3.03604e+01  2.30687e+01
       E -1.73720e+01 -4.61139e+01  4.67788e+01
       E  1.54379e+01 -5.74600e+01  3.22785e+01
3
# CELL(abcABC): 1322.94304  1322.94304  1322.94304    90.00000    90.00000    90.00000  Step:        9000  Bead:       5 positions{angstrom}  cell{angstrom}
       E -1.87061e+01  3.72757e+01  1.74249e+01
       E -5.34026e+01 -5.05741e+01  5.43571e+01
       E  1.60190e+01 -7.42724e+01 -1.74581e+01
3
# CELL(abcABC): 1322.94304  1322.94304  1322.94304    90.00000    90.00000    90.00000  Step:        9100  Bead:       5 positions{angstrom}  cell{angstrom}
       E  2.09459e+01  2.66406e+01  7.00657e+01
       E -3.95863e+01 -3.01202e+01  3.86578e+01
       E -7.94090e+00 -5.75617e+01 -2.18052e+01
3
# CELL(abcABC): 1322.94304  1322.94304  1322.94304    90.00000    90.00000    90.00000  Step:        9200  Bead:       5 positions{angstrom}  cell{angstrom}
       E  2.82120e+00  5.61734e+01  8.71882e-01
       E  5.87938e-01  2.43650e+01  3.39173e+01
       E  1.25475e+01 -2.58148e+01  1.22907e+01
3
# CELL(abcABC): 1322.94304  1322.94304  1322.94304    90.00000    90.00000    90.00000  Step:        9300  Bead:       5 positions{angstrom}  cell{angstrom}
       E  7.34735e+00  3.64998e+01 -3.34665e+01
       E  7.36441e+00 -4.53299e+01  1.52364e+01
       E  5.11717e+01 -8.14221e+00 -1.89452e+01
3
# CELL(abcABC): 1322.94304  1322.94304  1322.94304    90.00000    90.00000    90.00000  Step:        9400  Bead:       5 positions{angstrom}  cell{angstrom}
       E  1.07834e+01  4.44674e+01 -4.41641e+01
       E  3.66118e+00 -3.59080e+01  2.14518e+01
       E  2.38618e+01 -3.86276e+01  8.20733e+00
3
# CELL(abcABC): 1322.94304  1322.94304  1322.94304    90.00000    90.00000    90.00000  Step:        9500  Bead:       5 positions{angstrom}  cell{angstrom}
       E  3.35326e+01  1.35431e+01 -3.12076e+01
       E  4.25415e+01 -1.13911e+01  4.03088e+00
       E  2.31542e+00 -4.20952e+01 -1.24238e+00
3
# CELL(abcABC): 1322.94304  1322.94304  1322.94304    90.00000    90.00000    90.00000  Step:        9600  Bead:       5 positions{angstrom}  cell{angstrom}
       E -2.17357e+01 -1.21416e+01 -5.23722e+01
       E  4.95099e+01 -4.93376e+01  4.08524e+01
       E -1.25674e+01 -5.05135e+00  8.48556e+00
3
# CELL(abcABC): 1322.94304  1322.94304  1322.94304    90.00000    90.00000    90.00000  Step:        9700  Bead:       5 positions{angstrom}  cell{angstrom}
       E -4.86186e+01 -2.41896e+01 -8.71053e+01
       E  1.54390e+01 -6.51771e+01  5.44838e+01
       E  1.61414e+01 -3.66551e+01  1.50333e+01
3
# CELL(abcABC): 1322.94304  1322.94304  1322.94304    90.00000    90.00000    90.00000  Step:        9800  Bead:       5 positions{angstrom}  cell{angstrom}
       E -2.80724e+01 -3.51234e+01 -6.86286e+01
       E  3.70034e+01 -9.95512e+01 -9.66613e+00
       E -1.22929e+01 -3.16385e+01  3.19465e+01
3