3
# CELL(abcABC): 1322.94304  1322.94304  1322.94304    90.00000    90.00000    90.00000  Step:           0  Bead:      24 positions{angstrom}  cell{angstrom}
       E  0.00000e+00  0.00000e+00  0.00000e+00
       E  0.00000e+00  0.00000e+00  0.00000e+00
       E  0.00000e+00  0.00000e+00  0.00000e+00
3
# CELL(abcABC): 1322.94304  1322.94304  1322.94304    90.00000    90.00000    90.00000  Step:         100  Bead:      24 positions{angstrom}  cell{angstrom}
       E  3.83437e+01 -7.06177e+00 -4.33485e+00
       E  3.53033e+00 -4.54931e+01 -1.00440e+01
       E -2.64301e+01  2.61528e+00  9.52775e-01
3
# CELL(abcABC): 1322.94304  1322.94304  1322.94304    90.00000    90.00000    90.00000  Step:         200  Bead:      24 positions{angstrom}  cell{angstrom}
       E -2.98178e+00  1.99006e+00  3.71161e+01
       E -6.20588e+00 -7.36659e+01  5.16794e+00
       E  2.37832e+00  3.76394e+01 -1.46736e+00
3
# CELL(abcABC): 1322.94304  1322.94304  1322.94304    90.00000    90.00000    90.00000  Step:         300  Bead:      24 positions{angstrom}  cell{angstrom}
       E  1.69856e+01  4.23266e+00  4.54285e+01
       E -1.44789e+00 -2.73067e+01  1.84558e+01
       E  1.01263e+00 -1.09199e+00 -8.47253e+00
3
# CELL(abcABC): 1322.94304  1322.94304  1322.94304    90.00000    90.00000    90.00000  Step:         400  Bead:      24 positions{angstrom}  cell{angstrom}
       E  7.72782e+00  1.74969e+01 -1.62944e+00
       E  1.60070e+01 -5.16858e+01 -1.29331e+01
       E  2.05156e+01 -1.03946e+01 -1.55790e+01
3
# CELL(abcABC): 1322.94304  1322.94304  1322.94304    90.00000    90.00000    90.00000  Step:         500  Bead:      24 positions{angstrom}  cell{angstrom}
       E  1.05846e+01 -1.28182e+01 -3.60007e+01
       E  2.36469e+01 -9.05611e+00  2.24415e+01
       E  1.68742e+01 -1.50492e-01  1.57610e+01
3
# CELL(abcABC): 1322.94304  1322.94304  1322.94304    90.00000    90.00000    90.00000  Step:         600  Bead:      24 positions{angstrom}  cell{angstrom}
       E  2.84389e+01  1.80879e+00  5.03415e-01
       E  1.27761e+01 -1.33230e+01  3.19390e+01
       E  3.69662e+00  2.82034e+01 -1.36344e+01
3
# CELL(abcABC): 1322.94304  1322.94304  1322.94304    90.00000    90.00000    90.00000  Step:         700  Bead:      24 positions{angstrom}  cell{angstrom}
       E  1.96748e+01 -8.76018e+00  1.99684e+01
       E  2.37990e+01 -2.69492e+01  2.24410e+01
       E -1.45948e+01 -7.61705e+00  3.08858e+01
3
# CELL(abcABC): 1322.94304  1322.94304  1322.94304    90.00000    90.00000    90.00000  Step:         800  Bead:      24 positions{angstrom}  cell{angstrom}
       E  3.06386e+01  7.38032e+00  1.64406e+01
       E  2.59785e+01 -1.47891e+00  2.41264e+01
       E -5.15475e+01  6.81274e+00  8.01356e+00
3
# CELL(abcABC): 1322.94304  1322.94304  1322.94304    90.00000    90.00000    90.00000  Step:         900  Bead:      24 positions{angstrom}  cell{angstrom}
       E  3.35054e+01  2.79625e+01 -1.37244e+01
       E  2.18330e+00 -8.56992e+00  1.04647e+01
       E -5.00056e+01  1.47741e+01  6.19751e+01
3
# CELL(abcABC): 1322.94304  1322.94304  1322.94304    90.00000    90.00000    90.00000  Step:        1000  Bead:      24 positions{angstrom}  cell{angstrom}
       E  2.56777e+01  2.20256e+01 -1.07123e+01
       E  9.96482e-01  1.99187e+01 -1.54065e+01
       E -3.75850e+01  2.74420e+01  5.36979e+01
3
# CELL(abcABC): 1322.94304  1322.94304  1322.94304    90.00000    90.00000    90.00000  Step:        1100  Bead:      24 positions{angstrom}  cell{angstrom}
       E -1.52253e+01  2.08208e+01 -5.04277e+01
       E -1.52329e+01  7.35105e+00 -4.18815e+01
       E  1.98416e+01  2.30357e+01  4.10154e+01
3
# CELL(abcABC): 1322.94304  1322.94304  1322.94304    90.00000    90.00000    90.00000  Step:        1200  Bead:      24 positions{angstrom}  cell{angstrom}
       E  1.19528e+01  6.70423e+00 -2.25395e+01
       E  2.18407e+01  2.04035e+01 -5.11381e+01
       E  9.27687e+00  5.68280e+01  9.76955e+00
3
# CELL(abcABC): 1322.94304  1322.94304  1322.94304    90.00000    90.00000    90.00000  Step:        1300  Bead:      24 positions{angstrom}  cell{angstrom}
       E  1.55303e+00  1.73029e+01 -5.58711e+01
       E  2.37447e+00 -4.31577e+00 -7.93374e+01
       E -9.71370e+00  2.94634e+01  1.47243e+01
3
# CELL(abcABC): 1322.94304  1322.94304  1322.94304    90.00000    90.00000    90.00000  Step:        1400  Bead:      24 positions{angstrom}  cell{angstrom}
       E -2.02084e+01  6.19533e+01 -5.55371e+01
       E  5.87262e+00 -1.73795e+01 -3.91926e+01
       E -3.20470e+01  1.57727e+01  7.15608e+00
3
# CELL(abcABC): 1322.94304  1322.94304  1322.94304    90.00000    90.00000    90.00000  Step:        1500  Bead:      24 positions{angstrom}  cell{angstrom}
       E  3.60422e+00  4.70352e+01 -7.46262e+01
       E -2.74086e+01 -5.98684e+00 -4.85176e+01
       E  5.68423e-01  1.00802e+01  3.92189e+01
3
# CELL(abcABC): 1322.94304  1322.94304  1322.94304    90.00000    90.00000    90.00000  Step:        1600  Bead:      24 positions{angstrom}  cell{angstrom}
       E -3.15739e+01  4.71647e+01 -5.74496e+01
       E -3.77007e+01  3.05920e+01  8.77316e+00
       E  2.71465e+01  4.15877e+01  2.24953e+01
3
# CELL(abcABC): 1322.94304  1322.94304  1322.94304    90.00000    90.00000    90.00000  Step:        1700  Bead:      24 positions{angstrom}  cell{angstrom}
       E -1.67251e+01  3.44668e+01 -6.25484e+00
       E -4.25090e+00  3.23586e+01  3.14231e+01
       E  6.04091e+00  5.57650e+01 -3.28505e+01
3
# CELL(abcABC): 1322.94304  1322.94304  1322.94304    90.00000    90.00000    90.00000  Step:        1800  Bead:      24 positions{angstrom}  cell{angstrom}
       E -2.19384e+01  2.04789e+01  3.20899e+01
       E -6.06418e+01  2.15301e+01  1.64323e+01
       E -3.97620e+01  3.17922e+01 -1.12476e+01
3
# CELL(abcABC): 1322.94304  1322.94304  1322.94304    90.00000    90.00000    90.00000  Step:        1900  Bead:      24 positions{angstrom}  cell{angstrom}
       E -4.32358e+00 -7.86745e+00  3.46383e+01
       E -5.71818e+01  4.73642e+01  1.05642e+01
       E -4.36115e+01  2.17126e+01 -1.83262e+01
3
# CELL(abcABC): 1322.94304  1322.94304  1322.94304    90.00000    90.00000    90.00000  Step:        2000  Bead:      24 positions{angstrom}  cell{angstrom}
       E -3.67982e+01 -1.94137e+01  5.04515e+01
       E -1.39165e+01  3.61302e+01  6.16528e+00
       E -7.11528e+01  6.42304e+01  7.55770e+00
3
# CELL(abcABC): 1322.94304  1322.94304  1322.94304    90.00000    90.00000    90.00000  Step:        2100  Bead:      24 positions{angstrom}  cell{angstrom}
       E -3.28979e+01 -3.37356e+01  5.48976e+01
       E -1.49957e+01 -1.28485e+01  3.96173e+01
       E -1.98163e+01  7.21282e+01  2.45995e+00
3
# CELL(abcABC): 1322.94304  1322.94304  1322.94304    90.00000    90.00000    90.00000  Step:        2200  Bead:      24 positions{angstrom}  cell{angstrom}
       E -5.53005e+01 -2.55079e+01  1.70850e+01
       E -2.20843e+00 -1.31600e+01  1.50089e+01
       E -1.53595e+01 -1.00235e+01  8.96048e+00
3
# CELL(abcABC): 1322.94304  1322.94304  1322.94304    90.00000    90.00000    90.00000  Step:        2300  Bead:      24 positions{angstrom}  cell{angstrom}
       E -6.03177e+01 -2.17787e+01  2.67400e+01
       E -2.74710e+01  1.21557e+01  2.15835e+00
       E -2.58677e+01 -1.12047e+01 -3.05471e+01
3
# CELL(abcABC): 1322.94304  1322.94304  1322.94304    90.00000    90.00000    90.00000  Step:        2400  Bead:      24 positions{angstrom}  cell{angstrom}
       E -3.23244e+01 -1.97228e+01  1.51436e+01
       E -2.98237e+01 -9.99990e+00 -1.79120e+01
       E  8.53091e+00 -2.59301e+01 -4.04382e+01
3
# CELL(abcABC): 1322.94304  1322.94304  1322.94304    90.00000    90.00000    90.00000  Step:        2500  Bead:      24 positions{angstrom}  cell{angstrom}
       E -5.10240e+01  1.68179e+01  1.62121e+01
       E -2.72928e+01 -5.79106e+01 -4.02428e+01
       E  2.91523e+01 -3.56993e+01  2.03647e+01
3
# CELL(abcABC): 1322.94304  1322.94304  1322.94304    90.00000    90.00000    90.00000  Step:        2600  Bead:      24 positions{angstrom}  cell{angstrom}
       E -7.81496e+01 -8.92196e+00  6.31492e+01
       E -7.38607e+01 -3.97718e+01 -2.74332e+01
       E  6.31257e+01 -3.52985e+01  6.71051e+01
3
# CELL(abcABC): 1322.94304  1322.94304  1322.94304    90.00000    90.00000    90.00000  Step:        2700  Bead:      24 positions{angstrom}  cell{angstrom}
       E -7.80695e+01 -4.47908e+01  7.45274e+01
       E -3.45556e+01 -3.34910e+01 -2.90587e+01
       E  8.31926e+00 -4.20502e+01  9.20498e+01
3
# CELL(abcABC): 1322.94304  1322.94304  1322.94304    90.00000    90.00000    90.00000  Step:        2800  Bead:      24 positions{angstrom}  cell{angstrom}
       E -5.66076e+01 -5.57826e+01  9.28123e+01
       E -7.74738e+01 -4.44613e+01 -1.40989e+01
       E  4.07995e+01 -3.92005e+01  4.82778e+01
3
# CELL(abcABC): 1322.94304  1322.94304  1322.94304    90.00000    90.00000    90.00000  Step:        2900  Bead:      24 positions{angstrom}  cell{angstrom}
       E -7.20027e+01 -4.33794e+01  7.90757e+01
       E -6.27810e+01 -6.39937e+01  2.90842e+01
       E  5.52339e+01 -4.01366e+01  4.52292e+01
3
# CELL(abcABC): 1322.94304  1322.94304  1322.94304    90.00000    90.00000    90.00000  Step:        3000  Bead:      24 positions{angstrom}  cell{angstrom}
       E -5.08859e+01 -3.69906e+01  9.22172e+01
       E -8.94935e+01 -6.32596e+01  1.10425e+01
       E  1.19346e+01  1.64895e+01 -1.71154e+01
3
# CELL(abcABC): 1322.94304  1322.94304  1322.94304    90.00000    90.00000    90.00000  Step:        3100  Bead:      24 positions{angstrom}  cell{angstrom}
       E -4.06730e+01 -1.53605e+01  6.75674e+01
       E -6.37574e+01 -5.60179e+01  4.20423e+01
       E  4.48953e+01  6.25641e+01 -5.91490e+00
3
# CELL(abcABC): 1322.94304  1322.94304  1322.94304    90.00000    90.00000    90.00000  Step:        3200  Bead:      24 positions{angstrom}  cell{angstrom}
       E -3.26157e+01 -2.79795e+01  2.78738e+01
       E -6.27172e+01 -2.22659e+01  7.77378e+01
       E  1.83205e+01  4.03835e+01  1.58030e+01
3
# CELL(abcABC): 1322.94304  1322.94304  1322.94304    90.00000    90.00000    90.00000  Step:        3300  Bead:      24 positions{angstrom}  cell{angstrom}
       E -2.56302e+01  5.64743e+00  7.68241e+01
       E -1.00234e+02 -1.73081e+01  5.77986e+01
       E -6.22481e+00  6.73608e+01 -1.86892e+01
3
# CELL(abcABC): 1322.94304  1322.94304  1322.94304    90.00000    90.00000    90.00000  Step:        3400  Bead:      24 positions{angstrom}  cell{angstrom}
       E -8.04012e+01  5.02503e+01  8.04496e+01
       E -5.69852e+01 -3.03028e+01  3.01743e+01
       E -7.80430e+00  5.54158e+01  4.79603e+01
3
# CELL(abcABC): 1322.94304  1322.94304  1322.94304    90.00000    90.00000    90.00000  Step:        3500  Bead:      24 positions{angstrom}  cell{angstrom}
       E -5.81562e+01  3.33151e+01  8.23205e+01
       E -2.43213e+01 -3.30056e+01  2.81013e+01
       E  1.24441e+01  3.30390e+01  1.83249e+01
3
# CELL(abcABC): 1322.94304  1322.94304  1322.94304    90.00000    90.00000    90.00000  Step:        3600  Bead:      24 positions{angstrom}  cell{angstrom}
       E -9.30900e+01  3.22215e-01  4.08345e+01
       E -3.26824e+01 -3.26271e+01  5.77371e+01
       E -6.95976e+01  1.29842e+01  5.80211e+00
3
# CELL(abcABC): 1322.94304  1322.94304  1322.94304    90.00000    90.00000    90.00000  Step:        3700  Bead:      24 positions{angstrom}  cell{angstrom}
       E -7.32102e+01  3.75932e+00  3.22170e+01
       E  6.34363e+00 -3.64841e+01  3.74377e+01
       E -5.83723e+01  1.61727e+01  8.66853e-01
3
# CELL(abcABC): 1322.94304  1322.94304  1322.94304    90.00000    90.00000    90.00000  Step:        3800  Bead:      24 positions{angstrom}  cell{angstrom}
       E -7.39485e+01  2.44211e+01  1.78002e+01
       E -3.20978e-01 -4.22922e+01  3.86379e+01
       E -2.22284e+01 -3.35955e+01 -1.69618e+01
3
# CELL(abcABC): 1322.94304  1322.94304  1322.94304    90.00000    90.00000    90.00000  Step:        3900  Bead:      24 positions{angstrom}  cell{angstrom}
       E -5.58517e+01  1.48208e+01 -7.13371e+00
       E -8.90357e+00 -2.80567e+01  1.95153e+01
       E  9.81082e+00 -1.95669e+01 -1.61468e+01
3
# CELL(abcABC): 1322.94304  1322.94304  1322.94304    90.00000    90.00000    90.00000  Step:        4000  Bead:      24 positions{angstrom}  cell{angstrom}
       E -6.77607e+01  3.24006e+00 -3.20381e+01
       E -5.10087e+01 -5.47457e+00  2.94296e+00
       E -4.64543e+01 -5.02944e+00 -3.02707e+00
3
# CELL(abcABC): 1322.94304  1322.94304  1322.94304    90.00000    90.00000    90.00000  Step:        4100  Bead:      24 positions{angstrom}  cell{angstrom}
       E -7.97002e+01  8.09281e+00 -6.60587e+01
       E -6.08740e+01  1.46569e+01 -6.54431e-03
       E -2.51586e+01  1.68444e+01  9.05066e+00
3
# CELL(abcABC): 1322.94304  1322.94304  1322.94304    90.00000    90.00000    90.00000  Step:        4200  Bead:      24 positions{angstrom}  cell{angstrom}
       E -5.12385e+01 -3.19552e+01 -1.00185e+02
       E -4.92474e+01  3.34168e+01 -2.45786e+01
       E -4.77826e+00  2.45719e+01 -7.85160e+00
3
# CELL(abcABC): 1322.94304  1322.94304  1322.94304    90.00000    90.00000    90.00000  Step:        4300  Bead:      24 positions{angstrom}  cell{angstrom}
       E -4.31184e+01 -5.81628e+00 -7.50106e+01
       E -2.81292e+01  6.33313e+01 -1.45475e+01
       E  7.45279e+00  5.00478e+00  3.74577e+01
3
# CELL(abcABC): 1322.94304  1322.94304  1322.94304    90.00000    90.00000    90.00000  Step:        4400  Bead:      24 positions{angstrom}  cell{angstrom}
       E -3.17375e+01  1.92384e+01 -8.34144e+01
       E -3.80403e+01  5.42765e+01 -5.31103e+00
       E  1.46030e+01 -4.08390e+01  2.34809e+01
3
# CELL(abcABC): 1322.94304  1322.94304  1322.94304    90.00000    90.00000    90.00000  Step:        4500  Bead:      24 positions{angstrom}  cell{angstrom}
       E -3.07933e+01  8.96177e+00 -6.45724e+01
       E -2.80754e+01  5.96400e+01 -1.00132e+01
       E  1.87513e+01 -6.49042e+01  2.13425e+01
3
# CELL(abcABC): 1322.94304  1322.94304  1322.94304    90.00000    90.00000    90.00000  Step:        4600  Bead:      24 positions{angstrom}  cell{angstrom}
       E -4.56225e+01  1.15594e+01 -6.10074e+01
       E -4.00255e+01  4.87425e+01  1.31348e+01
       E -3.09056e+01 -4.61159e+01  2.81700e+01
3
# CELL(abcABC): 1322.94304  1322.94304  1322.94304    90.00000    90.00000    90.00000  Step:        4700  Bead:      24 positions{angstrom}  cell{angstrom}
       E -1.58879e+01  4.76419e+01 -9.11797e+01
       E -6.76004e+01  6.21908e+01 -4.25659e+00
       E -2.77824e+01 -6.28697e+01  3.67223e+01
3
# CELL(abcABC): 1322.94304  1322.94304  1322.94304    90.00000    90.00000    90.00000  Step:        4800  Bead:      24 positions{angstrom}  cell{angstrom}
       E -5.56359e+00  3.55173e+00 -8.37080e+01
       E -2.74624e+01  2.29797e+01 -5.47757e+00
       E  6.59499e+00 -3.64343e+01  3.07361e+01
3
# CELL(abcABC): 1322.94304  1322.94304  1322.94304    90.00000    90.00000    90.00000  Step:        4900  Bead:      24 positions{angstrom}  cell{angstrom}
       E  1.96366e+01  4.29482e+01 -3.71135e+01
       E -3.98545e+01 -1.52878e+01 -3.28512e+01
       E -2.42342e+01 -5.45977e+01 -3.75119e+01
3
# CELL(abcABC): 1322.94304  1322.94304  1322.94304    90.00000    90.00000    90.00000  Step:        5000  Bead:      24 positions{angstrom}  cell{angstrom}
       E  7.02470e+01  2.05225e+01  5.41824e+00
       E -1.59874e+01 -3.37134e+01 -1.57660e+01
       E -1.69584e+01 -1.15574e+01 -9.76676e+00
3
# CELL(abcABC): 1322.94304  1322.94304  1322.94304    90.00000    90.00000    90.00000  Step:        5100  Bead:      24 positions{angstrom}  cell{angstrom}
       E  2.21879e+01  1.76097e+01  1.61884e+01
       E -4.04319e+01 -1.77486e+01 -3.12710e+01
       E -2.83892e+00 -3.05569e+00 -3.62373e+01
3
# CELL(abcABC): 1322.94304  1322.94304  1322.94304    90.00000    90.00000    90.00000  Step:        5200  Bead:      24 positions{angstrom}  cell{angstrom}
       E -1.44049e+00  1.68135e+01  5.53106e+01
       E -4.10780e+01  5.53009e+00 -1.59699e+01
       E -5.26257e+00  2.44719e+01 -1.82962e+01
3
# CELL(abcABC): 1322.94304  1322.94304  1322.94304    90.00000    90.00000    90.00000  Step:        5300  Bead:      24 positions{angstrom}  cell{angstrom}
       E  2.32225e+00 -1.06420e+01  2.83418e+00
       E -3.81078e+01  1.30626e+01 -2.89162e+00
       E -4.18174e+01  4.42986e+01  3.67204e+01
3
# CELL(abcABC): 1322.94304  1322.94304  1322.94304    90.00000    90.00000    90.00000  Step:        5400  Bead:      24 positions{angstrom}  cell{angstrom}
       E  4.37340e+01  1.07914e+01 -2.91888e+01
       E -4.35103e+01  2.95365e+01  1.50905e+01
       E -2.01581e+01  3.55795e+01  1.18179e+01
3
# CELL(abcABC): 1322.94304  1322.94304  1322.94304    90.00000    90.00000    90.00000  Step:        5500  Bead:      24 positions{angstrom}  cell{angstrom}
       E  4.48686e+01 -1.07418e+01 -1.75823e+01
       E -3.06742e+01  2.47588e+01 -2.81110e+00
       E -2.59724e+01  4.32797e+01  2.99615e+01
3
# CELL(abcABC): 1322.94304  1322.94304  1322.94304    90.00000    90.00000    90.00000  Step:        5600  Bead:      24 positions{angstrom}  cell{angstrom}
       E -7.05845e+00  1.58987e+01 -3.96118e+01
       E  3.44701e+00  3.24274e+01  1.97244e+01
       E -5.01008e+01  1.28908e+01  1.00638e+01
3
# CELL(abcABC): 1322.94304  1322.94304  1322.94304    90.00000    90.00000    90.00000  Step:        5700  Bead:      24 positions{angstrom}  cell{angstrom}
       E  3.43717e+01  1.64023e+01 -4.22406e+01
       E -2.74079e+01  5.64611e-01 -1.04739e+01
       E -2.75584e+01 -6.77973e+00  5.14559e+00
3
# CELL(abcABC): 1322.94304  1322.94304  1322.94304    90.00000    90.00000    90.00000  Step:        5800  Bead:      24 positions{angstrom}  cell{angstrom}
       E  1.47083e+01 -1.54335e+00 -2.53653e+01
       E -4.46855e+01 -2.05199e+01 -1.78481e+01
       E -9.79435e+00 -2.15382e+01 -1.00294e+01
3
# CELL(abcABC): 1322.94304  1322.94304  1322.94304    90.00000    90.00000    90.00000  Step:        5900  Bead:      24 positions{angstrom}  cell{angstrom}
       E  1.68066e+01 -8.76405e-01  8.91780e+00
       E -4.76974e+00  2.27323e+00 -1.10795e+01
       E  1.88397e+01 -4.41990e+01  7.98288e+00
3
# CELL(abcABC): 1322.94304  1322.94304  1322.94304    90.00000    90.00000    90.00000  Step:        6000  Bead:      24 positions{angstrom}  cell{angstrom}
       E -7.33499e+00 -3.06627e+01 -2.56572e+01
       E  2.42464e+01 -6.05702e+00 -4.60628e+01
       E -8.21274e+00 -5.25652e+01  1.56693e+01
3
# CELL(abcABC): 1322.94304  1322.94304  1322.94304    90.00000    90.00000    90.00000  Step:        6100  Bead:      24 positions{angstrom}  cell{angstrom}
       E -1.39303e+01 -3.30286e+01 -3.32551e+01
       E  8.40389e+01 -2.08288e+00 -4.64595e+01
       E  3.20266e+01 -4.12486e+01 -2.37728e+00
3
# CELL(abcABC): 1322.94304  1322.94304  1322.94304    90.00000    90.00000    90.00000  Step:        6200  Bead:      24 positions{angstrom}  cell{angstrom}
       E  1.54246e+01 -1.17610e+01 -6.65908e+01
       E  1.08341e+02  4.56786e+01  6.55198e+00
       E -9.69883e+00 -2.86119e+01  2.20416e+01
3
# CELL(abcABC): 1322.94304  1322.94304  1322.94304    90.00000    90.00000    90.00000  Step:        6300  Bead:      24 positions{angstrom}  cell{angstrom}
       E  4.68300e+01 -7.83766e+01 -1.21147e+02
       E  7.14399e+01 -2.00242e+00 -1.82102e+01
       E  1.11928e+01 -5.43029e+01  4.33601e+01
3
# CELL(abcABC): 1322.94304  1322.94304  1322.94304    90.00000    90.00000    90.00000  Step:        6400  Bead:      24 positions{angstrom}  cell{angstrom}
       E  6.63603e+01 -7.66097e+01 -1.41400e+02
       E  2.69260e+01 -1.98424e+01 -3.53524e+01
       E  1.34020e+01 -4.56908e+01  7.65241e+00
3
# CELL(abcABC): 1322.94304  1322.94304  1322.94304    90.00000    90.00000    90.00000  Step:        6500  Bead:      24 positions{angstrom}  cell{angstrom}
       E  3.54184e+01 -9.43402e+01 -1.19839e+02
       E  2.91542e+00 -1.32841e+01 -6.63187e+01
       E  1.47547e+01 -2.38735e+01  1.18827e+01
3
# CELL(abcABC): 1322.94304  1322.94304  1322.94304    90.00000    90.00000    90.00000  Step:        6600  Bead:      24 positions{angstrom}  cell{angstrom}
       E  2.46789e+01 -9.19736e+01 -1.01755e+02
       E  4.40475e+01  2.70484e+01 -3.29693e+01
       E  1.94147e+01  6.59088e+00  3.03224e+01
3
# CELL(abcABC): 1322.94304  1322.94304  1322.94304    90.00000    90.00000    90.00000  Step:        6700  Bead:      24 positions{angstrom}  cell{angstrom}
       E  3.64376e+01 -1.15189e+02 -1.02832e+02
       E  6.09032e+01  1.51431e+00  5.89945e+00
       E -1.40403e+01 -1.38830e+01  3.67247e+01
3
# CELL(abcABC): 1322.94304  1322.94304  1322.94304    90.00000    90.00000    90.00000  Step:        6800  Bead:      24 positions{angstrom}  cell{angstrom}
       E  3.03370e+01 -1.29876e+02 -8.03960e+01
       E  6.28835e+01 -3.51815e+01 -5.96341e+00
       E -1.22423e+01 -3.59046e+01  2.77049e+01
3
# CELL(abcABC): 1322.94304  1322.94304  1322.94304    90.00000    90.00000    90.00000  Step:        6900  Bead:      24 positions{angstrom}  cell{angstrom}
       E  2.72065e+01 -8.36888e+01 -4.63865e+01
       E  5.79367e+01 -2.53588e+01 -1.90194e+01
       E -1.15574e+01 -1.72918e+01 -1.38995e+01
3
# CELL(abcABC): 1322.94304  1322.94304  1322.94304    90.00000    90.00000    90.00000  Step:        7000  Bead:      24 positions{angstrom}  cell{angstrom}
       E  4.10873e+01 -1.31632e+01 -7.26677e+00
       E  4.83747e+01  2.38879e+01 -2.31162e+01
       E  2.84333e+01  1.79931e+01 -6.05191e+01
3
# CELL(abcABC): 1322.94304  1322.94304  1322.94304    90.00000    90.00000    90.00000  Step:        7100  Bead:      24 positions{angstrom}  cell{angstrom}
       E  2.30776e+01 -3.94968e+01 -3.47027e+01
       E  2.99657e+00  3.86787e+01  2.02861e+00
       E  6.31266e+01 -1.67724e+00 -4.58579e+01
3
# CELL(abcABC): 1322.94304  1322.94304  1322.94304    90.00000    90.00000    90.00000  Step:        7200  Bead:      24 positions{angstrom}  cell{angstrom}
       E -3.80021e+00 -4.36828e+01 -5.73474e+01
       E -3.39337e+01  5.05299e+01  9.41901e+00
       E  5.26713e+01  4.33061e+01 -4.85072e+01
3
# CELL(abcABC): 1322.94304  1322.94304  1322.94304    90.00000    90.00000    90.00000  Step:        7300  Bead:      24 positions{angstrom}  cell{angstrom}
       E  4.90964e+01 -2.46116e+01 -4.84250e+01
       E -4.72265e+01  3.56911e+00 -1.73451e+01
       E  5.78022e+01  6.24268e+01 -2.25298e+00
3
# CELL(abcABC): 1322.94304  1322.94304  1322.94304    90.00000    90.00000    90.00000  Step:        7400  Bead:      24 positions{angstrom}  cell{angstrom}
       E -1.10368e+01 -4.58030e+01 -4.08528e+01
       E -3.19571e+01 -1.86798e+01 -5.62675e+00
       E  5.04960e+01  2.43318e+01  1.37824e+01
3
# CELL(abcABC): 1322.94304  1322.94304  1322.94304    90.00000    90.00000    90.00000  Step:        7500  Bead:      24 positions{angstrom}  cell{angstrom}
       E -1.88592e+01 -4.94755e+01 -4.52169e+01
       E -1.39475e+01 -4.69474e+01  2.15747e+01
       E  5.86937e+01  2.07269e+01  1.85245e+01
3
# CELL(abcABC): 1322.94304  1322.94304  1322.94304    90.00000    90.00000    90.00000  Step:        7600  Bead:      24 positions{angstrom}  cell{angstrom}
       E -1.52337e+01 -7.54973e+01 -4.83539e+01
       E -7.14348e+01 -2.11907e+01  2.81653e+01
       E  5.76870e+01  2.17395e+01 -3.55398e+01
3
# CELL(abcABC): 1322.94304  1322.94304  1322.94304    90.00000    90.00000    90.00000  Step:        7700  Bead:      24 positions{angstrom}  cell{angstrom}
       E -2.75908e+01 -6.88899e+01 -6.24753e+01
       E -2.15567e+01 -2.56124e+01 -1.27302e+01
       E  6.69090e+01  2.12496e+00 -2.31434e+01
3
# CELL(abcABC): 1322.94304  1322.94304  1322.94304    90.00000    90.00000    90.00000  Step:        7800  Bead:      24 positions{angstrom}  cell{angstrom}
       E  1.96041e+01 -2.83178e+01 -4.97502e+01
       E -1.57619e+01 -2.38570e+01 -2.66073e+01
       E  7.45089e+01 -3.29304e+01 -2.17444e+01
3
# CELL(abcABC): 1322.94304  1322.94304  1322.94304    90.00000    90.00000    90.00000  Step:        7900  Bead:      24 positions{angstrom}  cell{angstrom}
       E  3.03249e+01 -3.70138e+01 -4.68188e+01
       E  4.28917e+01 -2.42186e+01 -3.56061e+01
       E  1.46980e+01 -2.34084e+01 -4.32195e+01
3
# CELL(abcABC): 1322.94304  1322.94304  1322.94304    90.00000    90.00000    90.00000  Step:        8000  Bead:      24 positions{angstrom}  cell{angstrom}
       E  2.66099e+01  4.94465e+00 -1.09674e+01
       E -4.47020e+00 -2.37973e+01 -4.56786e+01
       E  1.70108e+01  3.21764e+00 -5.16742e+01
3
# CELL(abcABC): 1322.94304  1322.94304  1322.94304    90.00000    90.00000    90.00000  Step:        8100  Bead:      24 positions{angstrom}  cell{angstrom}
       E  2.26531e+01  5.77276e+01 -3.31831e+01
       E -6.28589e+01 -6.39787e+00 -4.63680e+01
       E  1.62250e+01 -7.83198e+00  1.20156e+01
3
# CELL(abcABC): 1322.94304  1322.94304  1322.94304    90.00000    90.00000    90.00000  Step:        8200  Bead:      24 positions{angstrom}  cell{angstrom}
       E  6.55238e+00  3.43035e+01  1.92265e+01
       E -7.88181e+00 -1.32075e+00 -2.01086e+01
       E -9.10212e-01 -4.28806e+01  1.16856e+01
3
# CELL(abcABC): 1322.94304  1322.94304  1322.94304    90.00000    90.00000    90.00000  Step:        8300  Bead:      24 positions{angstrom}  cell{angstrom}
       E -2.56187e+01  5.57685e+01 -4.61979e+00
       E  2.17552e+01  2.58680e+01 -2.91770e+01
       E  3.74501e+00 -4.15697e+01  3.35197e+01
3
# CELL(abcABC): 1322.94304  1322.94304  1322.94304    90.00000    90.00000    90.00000  Step:        8400  Bead:      24 positions{angstrom}  cell{angstrom}
       E -4.60652e+01  1.04183e+01  1.19324e+01
       E  4.19888e+00  2.88811e+01  9.53955e+00
       E -1.45472e+01 -5.32316e+01  3.88599e+01
3
# CELL(abcABC): 1322.94304  1322.94304  1322.94304    90.00000    90.00000    90.00000  Step:        8500  Bead:      24 positions{angstrom}  cell{angstrom}
       E -2.12530e+01 -9.74625e-01 -2.41031e+01
       E  7.42623e-01  3.91943e+01  1.04575e+01
       E  4.42897e+00 -5.53252e+01  8.33567e+01
3
# CELL(abcABC): 1322.94304  1322.94304  1322.94304    90.00000    90.00000    90.00000  Step:        8600  Bead:      24 positions{angstrom}  cell{angstrom}
       E -1.39995e+01  1.36358e+01 -3.10045e+00
       E  1.28362e+01  1.85883e+01  4.26606e+01
       E  6.00473e+01 -1.41470e+00  3.33925e+01
3
# CELL(abcABC): 1322.94304  1322.94304  1322.94304    90.00000    90.00000    90.00000  Step:        8700  Bead:      24 positions{angstrom}  cell{angstrom}
       E  1.43586e+01 -7.73210e+00 -1.25690e+01
       E  4.62206e+00 -3.82050e+00  1.36614e+01
       E  6.34207e+01 -4.77512e-01  2.42489e+01
3
# CELL(abcABC): 1322.94304  1322.94304  1322.94304    90.00000    90.00000    90.00000  Step:        8800  Bead:      24 positions{angstrom}  cell{angstrom}
       E -4.72118e+01  6.64306e-01 -7.76497e+00
       E -3.15447e+00 -3.68251e+01  3.33993e+01
       E  7.64128e+01 -4.91941e+01  9.69199e+00
3
# CELL(abcABC): 1322.94304  1322.94304  1322.94304    90.00000    90.00000    90.00000  Step:        8900  Bead:      24 positions{angstrom}  cell{angstrom}
       E -5.53408e+01  3.34589e+01  4.83106e+00
       E  2.57606e+01 -3.36582e+01  1.01982e+01
       E  4.45341e+01 -7.25630e+01 -1.11907e+00
3
# CELL(abcABC): 1322.94304  1322.94304  1322.94304    90.00000    90.00000    90.00000  Step:        9000  Bead:      24 positions{angstrom}  cell{angstrom}
       E -5.05442e+01 -9.47527e+00  4.65790e+00
       E  1.89130e+01 -1.10573e+01  5.96788e+01
       E  1.76429e+01 -7.69279e+01  1.34175e+01
3
# CELL(abcABC): 1322.94304  1322.94304  1322.94304    90.00000    90.00000    90.00000  Step:        9100  Bead:      24 positions{angstrom}  cell{angstrom}
       E -3.74228e+01  4.02193e+00  7.37017e+00
       E  3.86806e+00  4.33767e+00  5.11264e+01
       E  2.68825e+01 -4.05191e+01  1.43746e+01
3
# CELL(abcABC): 1322.94304  1322.94304  1322.94304    90.00000    90.00000    90.00000  Step:        9200  Bead:      24 positions{angstrom}  cell{angstrom}
       E  1.69041e+01  3.41306e+01 -4.45663e+01
       E  2.29673e-01 -3.81483e+00  1.65578e+01
       E  3.98487e+01 -4.60731e+01  1.93754e+01
3
# CELL(abcABC): 1322.94304  1322.94304  1322.94304    90.00000    90.00000    90.00000  Step:        9300  Bead:      24 positions{angstrom}  cell{angstrom}
       E  2.33259e+01 -1.86665e+01 -6.44319e+01
       E -3.72999e+01 -2.48879e+01  2.89005e+01
       E  6.07608e+00 -3.05556e+01 -2.96005e+00
3
# CELL(abcABC): 1322.94304  1322.94304  1322.94304    90.00000    90.00000    90.00000  Step:        9400  Bead:      24 positions{angstrom}  cell{angstrom}
       E  4.91948e+01  1.50934e+01 -5.64083e+01
       E -2.19158e+01 -4.33244e+00  6.92201e+01
       E  1.47691e+01 -2.75749e+01 -1.22670e+01
3
# CELL(abcABC): 1322.94304  1322.94304  1322.94304    90.00000    90.00000    90.00000  Step:        9500  Bead:      24 positions{angstrom}  cell{angstrom}
       E  1.93974e+01  3.79776e+01 -6.10250e+01
       E  3.94280e+01 -2.12122e+01  7.15622e+01
       E  2.86373e+01 -2.31075e+01 -9.64896e+00
3
# CELL(abcABC): 1322.94304  1322.94304  1322.94304    90.00000    90.00000    90.00000  Step:        9600  Bead:      24 positions{angstrom}  cell{angstrom}
       E  2.76648e+01 -6.46070e+00 -5.71688e+01
       E  3.11865e+01 -8.78773e+01 -8.21610e+00
       E  9.06231e+00 -9.99514e+00 -1.10546e+01
3
# CELL(abcABC): 1322.94304  1322.94304  1322.94304    90.00000    90.00000    90.00000  Step:        9700  Bead:      24 positions{angstrom}  cell{angstrom}
       E -5.43972e+00 -4.35499e+01 -6.02939e+01
       E  2.61983e+01 -7.18276e+01  1.18404e+01
       E  4.07291e+00  1.26746e+01 -5.30893e+00
3
# CELL(abcABC): 1322.94304  1322.94304  1322.94304    90.00000    90.00000    90.00000  Step:        9800  Bead:      24 positions{angstrom}  cell{angstrom}
       E -5.10139e+01 -5.51640e+01 -4.21749e+01
       E  2.88922e+01 -4.25248e+01 -4.58532e+00
       E  6.91607e-01 -1.38769e+01  1.22455e+01
3