3
# CELL(abcABC): 1322.94304  1322.94304  1322.94304    90.00000    90.00000    90.00000  Step:           0  Bead:      21 positions{angstrom}  cell{angstrom}
       E  0.00000e+00  0.00000e+00  0.00000e+00
       E  0.00000e+00  0.00000e+00  0.00000e+00
       E  0.00000e+00  0.00000e+00  0.00000e+00
3
# CELL(abcABC): 1322.94304  1322.94304  1322.94304    90.00000    90.00000    90.00000  Step:         100  Bead:      21 positions{angstrom}  cell{angstrom}
       E  4.07777e+01 -4.34286e+00 -2.77274e+01
       E -3.58884e+01 -4.37961e+01 -1.75373e+01
       E -2.35295e+01  4.57210e-01 -4.01469e+00
3
# CELL(abcABC): 1322.94304  1322.94304  1322.94304    90.00000    90.00000    90.00000  Step:         200  Bead:      21 positions{angstrom}  cell{angstrom}
       E  4.47474e+01  1.00951e+01 -4.06556e+00
       E  2.68650e+01 -3.96996e+01 -4.87269e+00
       E  1.52080e+01  3.66807e+01 -1.76672e+01
3
# CELL(abcABC): 1322.94304  1322.94304  1322.94304    90.00000    90.00000    90.00000  Step:         300  Bead:      21 positions{angstrom}  cell{angstrom}
       E  2.38338e+01  1.30862e+01  3.16782e+01
       E  1.99287e+01  2.91929e+00  2.25931e+01
       E -3.54766e+01 -8.64614e-01 -2.28084e+01
3
# CELL(abcABC): 1322.94304  1322.94304  1322.94304    90.00000    90.00000    90.00000  Step:         400  Bead:      21 positions{angstrom}  cell{angstrom}
       E -1.20848e+01  4.05347e+01 -4.77001e+00
       E  3.24884e+01 -1.74692e+01 -2.57092e+01
       E -2.12422e+01  1.20654e+01 -9.48267e+00
3
# CELL(abcABC): 1322.94304  1322.94304  1322.94304    90.00000    90.00000    90.00000  Step:         500  Bead:      21 positions{angstrom}  cell{angstrom}
       E -1.31660e+01  3.31474e+00  4.36535e+00
       E  3.04658e+01  3.25592e+00  1.36304e+00
       E -4.99804e+00 -2.37248e+01  1.09557e+01
3
# CELL(abcABC): 1322.94304  1322.94304  1322.94304    90.00000    90.00000    90.00000  Step:         600  Bead:      21 positions{angstrom}  cell{angstrom}
       E -3.54769e+00  5.51429e+00 -5.32529e+00
       E  2.35796e+01 -6.65557e+00 -1.22398e+01
       E  9.14783e+00 -1.25723e+01  2.36149e+00
3
# CELL(abcABC): 1322.94304  1322.94304  1322.94304    90.00000    90.00000    90.00000  Step:         700  Bead:      21 positions{angstrom}  cell{angstrom}
       E  1.68214e+01 -5.55367e+00  1.08507e+01
       E  4.51634e+01  9.42616e+00  2.23893e+01
       E -2.40432e+01 -1.20798e+01  1.50426e+01
3
# CELL(abcABC): 1322.94304  1322.94304  1322.94304    90.00000    90.00000    90.00000  Step:         800  Bead:      21 positions{angstrom}  cell{angstrom}
       E  1.45385e+00  8.10046e+00  3.57350e+00
       E  5.07299e+01  2.11130e+01  5.21978e+00
       E -2.48210e+01 -1.44653e+01  6.82396e+01
3
# CELL(abcABC): 1322.94304  1322.94304  1322.94304    90.00000    90.00000    90.00000  Step:         900  Bead:      21 positions{angstrom}  cell{angstrom}
       E -5.23726e+00  3.87502e+01 -4.26524e+01
       E  1.69601e+01 -2.10031e+01 -1.17222e+01
       E -6.80256e+01  3.26831e+00  6.89450e+01
3
# CELL(abcABC): 1322.94304  1322.94304  1322.94304    90.00000    90.00000    90.00000  Step:        1000  Bead:      21 positions{angstrom}  cell{angstrom}
       E  1.08522e+01  2.24783e+01 -6.00435e+00
       E -4.21230e+00 -6.38557e+00 -4.04292e+01
       E -4.80683e+01  1.17763e-01  4.62174e+01
3
# CELL(abcABC): 1322.94304  1322.94304  1322.94304    90.00000    90.00000    90.00000  Step:        1100  Bead:      21 positions{angstrom}  cell{angstrom}
       E  9.89904e+00  1.82204e+01 -3.97994e+01
       E  2.21401e+00 -3.29554e+01 -2.92585e+01
       E -2.72732e+01  4.23521e+01  6.66953e+01
3
# CELL(abcABC): 1322.94304  1322.94304  1322.94304    90.00000    90.00000    90.00000  Step:        1200  Bead:      21 positions{angstrom}  cell{angstrom}
       E -1.30423e+01  2.31464e+01 -5.20723e+01
       E  4.33152e+01 -2.43872e+01 -2.66844e+01
       E -1.93281e+01  5.66281e+01  1.08293e+01
3
# CELL(abcABC): 1322.94304  1322.94304  1322.94304    90.00000    90.00000    90.00000  Step:        1300  Bead:      21 positions{angstrom}  cell{angstrom}
       E  8.79251e+00  3.14648e+01 -7.10915e+01
       E  3.83463e+01 -1.99473e+01 -5.19035e+01
       E  1.44130e+01  2.56329e+01 -9.76380e+00
3
# CELL(abcABC): 1322.94304  1322.94304  1322.94304    90.00000    90.00000    90.00000  Step:        1400  Bead:      21 positions{angstrom}  cell{angstrom}
       E  2.63444e+00  4.12961e+01 -4.57581e+01
       E  6.11979e+00 -1.02378e+01 -3.96260e+01
       E  1.23134e+01 -1.12974e+01  6.86584e+00
3
# CELL(abcABC): 1322.94304  1322.94304  1322.94304    90.00000    90.00000    90.00000  Step:        1500  Bead:      21 positions{angstrom}  cell{angstrom}
       E -1.95165e+00  5.85506e+01 -1.72301e+01
       E -3.64636e+01  3.23506e+01 -1.62231e+01
       E -1.31807e+01 -3.84365e+00  1.66039e+01
3
# CELL(abcABC): 1322.94304  1322.94304  1322.94304    90.00000    90.00000    90.00000  Step:        1600  Bead:      21 positions{angstrom}  cell{angstrom}
       E -2.43243e+01  2.94420e+01 -1.85401e+01
       E -4.38483e+01  1.86242e+01 -1.05608e+00
       E  2.31895e+01  2.57314e+01 -1.04774e+01
3
# CELL(abcABC): 1322.94304  1322.94304  1322.94304    90.00000    90.00000    90.00000  Step:        1700  Bead:      21 positions{angstrom}  cell{angstrom}
       E -7.21990e+00  5.88397e+01 -9.50961e+00
       E -1.81781e+01  3.08004e+01  3.62893e+01
       E  8.36747e+00  7.43823e+01  7.75562e+00
3
# CELL(abcABC): 1322.94304  1322.94304  1322.94304    90.00000    90.00000    90.00000  Step:        1800  Bead:      21 positions{angstrom}  cell{angstrom}
       E -7.21912e+00  5.19490e+01  3.89092e+01
       E -5.27359e+01  3.55878e+01  2.24353e+01
       E -3.83393e+01  5.03080e+01  2.00885e+01
3
# CELL(abcABC): 1322.94304  1322.94304  1322.94304    90.00000    90.00000    90.00000  Step:        1900  Bead:      21 positions{angstrom}  cell{angstrom}
       E  1.52044e+01  8.72126e+00  3.96764e+01
       E -3.86890e+01  5.00782e+01  2.12020e+01
       E -9.25771e+01  4.44654e+01  1.44303e+01
3
# CELL(abcABC): 1322.94304  1322.94304  1322.94304    90.00000    90.00000    90.00000  Step:        2000  Bead:      21 positions{angstrom}  cell{angstrom}
       E -3.74445e+01 -3.34741e+01  5.30720e+01
       E -6.15674e+01  1.61982e+01  4.02900e+01
       E -6.40686e+01  6.97914e+01  4.84077e+00
3
# CELL(abcABC): 1322.94304  1322.94304  1322.94304    90.00000    90.00000    90.00000  Step:        2100  Bead:      21 positions{angstrom}  cell{angstrom}
       E -5.81286e+01 -1.54661e+01  4.80240e+01
       E -3.48193e+01  2.62455e+00  1.44792e+01
       E -7.45029e+01  8.10454e+01  3.59185e+01
3
# CELL(abcABC): 1322.94304  1322.94304  1322.94304    90.00000    90.00000    90.00000  Step:        2200  Bead:      21 positions{angstrom}  cell{angstrom}
       E -1.57667e+01 -1.50288e+01  2.77378e+01
       E -3.19314e+01 -3.54607e+01 -6.89608e+00
       E -5.34465e+01  2.00506e+01 -2.04547e+00
3
# CELL(abcABC): 1322.94304  1322.94304  1322.94304    90.00000    90.00000    90.00000  Step:        2300  Bead:      21 positions{angstrom}  cell{angstrom}
       E -8.13001e+01  6.05082e-01  8.11640e+01
       E -4.52610e+00 -2.41693e+01 -9.40050e+00
       E -1.18902e+01 -1.18108e+01 -2.79715e+01
3
# CELL(abcABC): 1322.94304  1322.94304  1322.94304    90.00000    90.00000    90.00000  Step:        2400  Bead:      21 positions{angstrom}  cell{angstrom}
       E -5.51836e+01  2.51912e+01  3.88615e+01
       E -1.16602e+01 -1.66464e+01 -1.04686e+01
       E  2.17622e+01 -3.26925e+01  5.56932e+00
3
# CELL(abcABC): 1322.94304  1322.94304  1322.94304    90.00000    90.00000    90.00000  Step:        2500  Bead:      21 positions{angstrom}  cell{angstrom}
       E -5.14778e+01  9.40891e+00  2.17916e+01
       E -2.70293e+01 -4.56160e+01 -3.10252e+01
       E  2.72752e+01 -3.34193e+01  3.76796e+01
3
# CELL(abcABC): 1322.94304  1322.94304  1322.94304    90.00000    90.00000    90.00000  Step:        2600  Bead:      21 positions{angstrom}  cell{angstrom}
       E -6.56397e+01  1.03555e+01  3.78727e+01
       E -5.08765e+01 -3.74427e+01 -4.85454e+01
       E  3.03136e+01 -1.17907e+01  6.08814e+01
3
# CELL(abcABC): 1322.94304  1322.94304  1322.94304    90.00000    90.00000    90.00000  Step:        2700  Bead:      21 positions{angstrom}  cell{angstrom}
       E -7.68425e+01  2.24918e+00  6.43952e+01
       E -6.30255e+01 -4.11442e+01 -3.29969e+01
       E  3.75349e+01 -4.96760e+01  6.55383e+01
3
# CELL(abcABC): 1322.94304  1322.94304  1322.94304    90.00000    90.00000    90.00000  Step:        2800  Bead:      21 positions{angstrom}  cell{angstrom}
       E -5.12205e+01 -4.16518e+00  5.64731e+01
       E -9.52373e+01 -5.02876e+01 -1.20091e+01
       E  2.56091e+01 -2.29272e+01  3.89104e+01
3
# CELL(abcABC): 1322.94304  1322.94304  1322.94304    90.00000    90.00000    90.00000  Step:        2900  Bead:      21 positions{angstrom}  cell{angstrom}
       E -8.66480e+01 -9.32688e+00  3.98864e+01
       E -9.44181e+01 -7.73229e+01  3.27627e+01
       E -1.81618e+00 -1.46827e+01  1.59746e+01
3
# CELL(abcABC): 1322.94304  1322.94304  1322.94304    90.00000    90.00000    90.00000  Step:        3000  Bead:      21 positions{angstrom}  cell{angstrom}
       E -3.29675e+01 -2.18747e+01  8.89950e+01
       E -7.30885e+01 -2.83011e+01  2.33138e+01
       E  1.33075e+01  6.09694e+00  8.16906e+00
3
# CELL(abcABC): 1322.94304  1322.94304  1322.94304    90.00000    90.00000    90.00000  Step:        3100  Bead:      21 positions{angstrom}  cell{angstrom}
       E -5.36566e+01 -1.20190e+01  9.03757e+01
       E -1.04162e+02 -6.24448e+01  3.54224e+01
       E  2.30151e+01  5.87478e+01  1.29760e+01
3
# CELL(abcABC): 1322.94304  1322.94304  1322.94304    90.00000    90.00000    90.00000  Step:        3200  Bead:      21 positions{angstrom}  cell{angstrom}
       E -3.93946e+01  3.90817e+00  3.19831e+01
       E -9.19821e+01 -3.08671e+01  4.56345e+01
       E  9.20961e+00  5.49973e+01  4.81288e+00
3
# CELL(abcABC): 1322.94304  1322.94304  1322.94304    90.00000    90.00000    90.00000  Step:        3300  Bead:      21 positions{angstrom}  cell{angstrom}
       E -1.03494e+01  1.93105e+01  4.81523e+01
       E -9.58967e+01 -2.98178e+01  5.52099e+01
       E -3.43002e+01  5.54347e+01 -2.92936e+01
3
# CELL(abcABC): 1322.94304  1322.94304  1322.94304    90.00000    90.00000    90.00000  Step:        3400  Bead:      21 positions{angstrom}  cell{angstrom}
       E -6.48848e+01  1.76606e+01  8.27164e+01
       E -7.32780e+01 -3.11773e+01  4.91512e+01
       E -1.09598e+01  3.50909e+01  3.29266e+01
3
# CELL(abcABC): 1322.94304  1322.94304  1322.94304    90.00000    90.00000    90.00000  Step:        3500  Bead:      21 positions{angstrom}  cell{angstrom}
       E -8.40343e+01  2.37212e+01  6.02428e+01
       E -2.67137e+01 -6.63789e+00  3.09575e+01
       E -1.23759e+01  2.61629e+01  2.80854e+01
3
# CELL(abcABC): 1322.94304  1322.94304  1322.94304    90.00000    90.00000    90.00000  Step:        3600  Bead:      21 positions{angstrom}  cell{angstrom}
       E -7.60292e+01  1.01670e+01  4.27596e+01
       E -1.84844e+01 -4.75779e+01  5.58058e+01
       E -5.87263e+01  9.19348e+00  1.75772e+01
3
# CELL(abcABC): 1322.94304  1322.94304  1322.94304    90.00000    90.00000    90.00000  Step:        3700  Bead:      21 positions{angstrom}  cell{angstrom}
       E -6.69720e+01  2.63659e+01 -2.08160e+01
       E -1.00213e+01 -3.96386e+01  1.16865e+01
       E -5.18748e+01 -2.90670e+00  7.82796e+00
3
# CELL(abcABC): 1322.94304  1322.94304  1322.94304    90.00000    90.00000    90.00000  Step:        3800  Bead:      21 positions{angstrom}  cell{angstrom}
       E -7.00435e+01 -2.84885e+00 -5.22685e+00
       E  8.62992e+00 -3.41383e+01  4.03904e+01
       E -6.15367e+01 -1.84015e+00 -2.55841e+01
3
# CELL(abcABC): 1322.94304  1322.94304  1322.94304    90.00000    90.00000    90.00000  Step:        3900  Bead:      21 positions{angstrom}  cell{angstrom}
       E -8.79781e+01 -1.19226e+01 -3.79269e+01
       E -2.40659e+01 -4.10087e+01  4.36142e+00
       E -2.62360e+01 -1.71993e+01  1.87262e+00
3
# CELL(abcABC): 1322.94304  1322.94304  1322.94304    90.00000    90.00000    90.00000  Step:        4000  Bead:      21 positions{angstrom}  cell{angstrom}
       E -9.68381e+01  1.88738e+01 -5.20918e+01
       E -3.82021e+01 -1.77584e+01  2.53704e+01
       E -2.10494e+01  1.71735e+01  3.01871e+01
3
# CELL(abcABC): 1322.94304  1322.94304  1322.94304    90.00000    90.00000    90.00000  Step:        4100  Bead:      21 positions{angstrom}  cell{angstrom}
       E -9.29377e+01  1.25568e+01 -8.77316e+01
       E -5.41192e+01 -9.07921e+00 -3.48054e+01
       E -3.60017e+01 -9.45919e-01  2.75068e+01
3
# CELL(abcABC): 1322.94304  1322.94304  1322.94304    90.00000    90.00000    90.00000  Step:        4200  Bead:      21 positions{angstrom}  cell{angstrom}
       E -7.95252e+01 -1.59748e+01 -9.93206e+01
       E -6.17912e+01  1.17849e+01  8.93230e-01
       E -1.20008e+00  2.15286e+01  2.63302e+01
3
# CELL(abcABC): 1322.94304  1322.94304  1322.94304    90.00000    90.00000    90.00000  Step:        4300  Bead:      21 positions{angstrom}  cell{angstrom}
       E -1.65399e+01  1.07280e+01 -4.52814e+01
       E -2.39988e+01  1.19374e+01  3.64621e+00
       E -3.04433e+00  6.18160e+00  3.45498e+01
3
# CELL(abcABC): 1322.94304  1322.94304  1322.94304    90.00000    90.00000    90.00000  Step:        4400  Bead:      21 positions{angstrom}  cell{angstrom}
       E -2.11293e+01  1.53711e+01 -4.23953e+01
       E -2.69473e+01  5.02236e+01 -4.07339e+01
       E  3.85075e+01 -4.25333e+01 -2.39507e+00
3
# CELL(abcABC): 1322.94304  1322.94304  1322.94304    90.00000    90.00000    90.00000  Step:        4500  Bead:      21 positions{angstrom}  cell{angstrom}
       E -4.27571e+01 -9.65217e+00 -5.49770e+01
       E -2.67871e+01  7.89922e+01 -3.11486e+01
       E  9.76443e+00 -2.74140e+01  2.71233e+01
3
# CELL(abcABC): 1322.94304  1322.94304  1322.94304    90.00000    90.00000    90.00000  Step:        4600  Bead:      21 positions{angstrom}  cell{angstrom}
       E -4.29949e+01  2.64468e+01 -5.63059e+01
       E -3.63813e+01  9.58055e+01  3.44472e+00
       E -1.75232e+01  3.12994e+00 -3.27149e-01
3
# CELL(abcABC): 1322.94304  1322.94304  1322.94304    90.00000    90.00000    90.00000  Step:        4700  Bead:      21 positions{angstrom}  cell{angstrom}
       E -1.81446e+01  3.65083e+01 -7.49320e+01
       E -4.54661e+01  5.70989e+01 -1.52858e+01
       E -1.92544e+01 -4.06607e+01  5.43411e+00
3
# CELL(abcABC): 1322.94304  1322.94304  1322.94304    90.00000    90.00000    90.00000  Step:        4800  Bead:      21 positions{angstrom}  cell{angstrom}
       E -2.50109e+01  8.56924e+00 -5.84379e+01
       E -4.36389e+01  1.79553e+01 -3.66422e+00
       E  1.66530e+01 -1.51390e+01  2.93273e+01
3
# CELL(abcABC): 1322.94304  1322.94304  1322.94304    90.00000    90.00000    90.00000  Step:        4900  Bead:      21 positions{angstrom}  cell{angstrom}
       E  3.22290e+01  1.14157e+01 -6.82002e+00
       E -2.83906e+01 -7.02560e+00 -2.14194e+01
       E -9.49368e+00 -4.78546e+01  7.62544e+00
3
# CELL(abcABC): 1322.94304  1322.94304  1322.94304    90.00000    90.00000    90.00000  Step:        5000  Bead:      21 positions{angstrom}  cell{angstrom}
       E  4.07866e+01  3.02360e+00  2.31237e+01
       E -5.38477e+01 -1.95716e+01 -3.17491e+01
       E  9.31489e-01 -9.40383e+00 -3.30812e+01
3
# CELL(abcABC): 1322.94304  1322.94304  1322.94304    90.00000    90.00000    90.00000  Step:        5100  Bead:      21 positions{angstrom}  cell{angstrom}
       E  1.61449e+01  2.60508e+01  3.08014e+01
       E -5.72001e+01 -4.97360e+00 -3.02302e+01
       E  9.55604e+00 -8.59549e+00 -5.38713e+01
3
# CELL(abcABC): 1322.94304  1322.94304  1322.94304    90.00000    90.00000    90.00000  Step:        5200  Bead:      21 positions{angstrom}  cell{angstrom}
       E -4.31990e+01  1.66262e+00  2.79589e+01
       E -4.06363e+01  1.24594e+01 -4.97831e+01
       E -4.29813e+00  7.93232e+00 -9.45302e+00
3
# CELL(abcABC): 1322.94304  1322.94304  1322.94304    90.00000    90.00000    90.00000  Step:        5300  Bead:      21 positions{angstrom}  cell{angstrom}
       E  6.05039e+00 -1.13461e+01  2.24198e+01
       E -3.98235e+00  3.27163e+01 -2.49754e+01
       E -5.10171e+01  3.79157e+01  7.22623e+00
3
# CELL(abcABC): 1322.94304  1322.94304  1322.94304    90.00000    90.00000    90.00000  Step:        5400  Bead:      21 positions{angstrom}  cell{angstrom}
       E  1.20922e+01  4.16711e+00 -5.49135e-01
       E  6.37526e+00  3.43880e-01  1.25958e+01
       E -1.59245e+01  3.51592e+01  3.49791e+01
3
# CELL(abcABC): 1322.94304  1322.94304  1322.94304    90.00000    90.00000    90.00000  Step:        5500  Bead:      21 positions{angstrom}  cell{angstrom}
       E  5.97440e+01 -2.04107e+01 -4.76036e+01
       E -3.81790e+01  2.72832e+01 -6.82658e+00
       E -1.91222e+01 -4.36448e+00  4.83574e+01
3
# CELL(abcABC): 1322.94304  1322.94304  1322.94304    90.00000    90.00000    90.00000  Step:        5600  Bead:      21 positions{angstrom}  cell{angstrom}
       E  2.16761e+00  1.43077e+01 -2.83886e+01
       E -5.17724e+01  2.53139e+01  1.24587e+01
       E -3.44001e+01  7.85399e+00  4.61489e+01
3
# CELL(abcABC): 1322.94304  1322.94304  1322.94304    90.00000    90.00000    90.00000  Step:        5700  Bead:      21 positions{angstrom}  cell{angstrom}
       E  1.75914e+01 -2.55419e+01 -4.58222e+01
       E -5.61487e+01  1.59918e+01 -1.69687e+01
       E -2.89879e+01 -1.00141e+01 -2.02634e+01
3
# CELL(abcABC): 1322.94304  1322.94304  1322.94304    90.00000    90.00000    90.00000  Step:        5800  Bead:      21 positions{angstrom}  cell{angstrom}
       E  1.01960e+01  1.16056e+01 -2.70803e+01
       E -1.94225e+01 -4.50941e+00 -1.10150e+01
       E -3.04304e+01  2.58556e+01 -2.57138e+00
3
# CELL(abcABC): 1322.94304  1322.94304  1322.94304    90.00000    90.00000    90.00000  Step:        5900  Bead:      21 positions{angstrom}  cell{angstrom}
       E  2.28224e+01  3.27851e+01 -1.01245e+01
       E -3.16295e+01  1.57479e+01  1.23318e+01
       E -7.66980e+00 -4.42594e+01 -3.05561e+01
3
# CELL(abcABC): 1322.94304  1322.94304  1322.94304    90.00000    90.00000    90.00000  Step:        6000  Bead:      21 positions{angstrom}  cell{angstrom}
       E -3.73032e+00 -2.00410e+01 -9.47597e+00
       E  2.94773e+01 -5.07956e+00 -6.10894e-01
       E  2.27978e+01 -1.67753e+01 -1.69312e+01
3
# CELL(abcABC): 1322.94304  1322.94304  1322.94304    90.00000    90.00000    90.00000  Step:        6100  Bead:      21 positions{angstrom}  cell{angstrom}
       E -4.29961e+00 -2.77810e+01 -2.72686e+01
       E  6.11644e+01  3.49124e+01 -1.61944e+00
       E  1.03095e+01 -3.01940e+01  1.98173e-02
3
# CELL(abcABC): 1322.94304  1322.94304  1322.94304    90.00000    90.00000    90.00000  Step:        6200  Bead:      21 positions{angstrom}  cell{angstrom}
       E  2.85552e+00 -2.72176e+01 -1.17595e+02
       E  1.10845e+02  3.26939e+01  9.84146e+00
       E  3.01980e+01 -3.67738e+01  1.29333e+00
3
# CELL(abcABC): 1322.94304  1322.94304  1322.94304    90.00000    90.00000    90.00000  Step:        6300  Bead:      21 positions{angstrom}  cell{angstrom}
       E  3.03502e+01 -3.98918e+01 -1.24993e+02
       E  8.83132e+01 -6.84644e+00 -2.08328e+01
       E -2.16593e+00 -2.15453e+01  2.48521e+00
3
# CELL(abcABC): 1322.94304  1322.94304  1322.94304    90.00000    90.00000    90.00000  Step:        6400  Bead:      21 positions{angstrom}  cell{angstrom}
       E  7.48957e+01 -6.03197e+01 -1.39334e+02
       E  3.70802e+01 -3.33362e+01 -4.92121e+01
       E  2.15168e+01 -2.67609e+01 -2.99391e+01
3
# CELL(abcABC): 1322.94304  1322.94304  1322.94304    90.00000    90.00000    90.00000  Step:        6500  Bead:      21 positions{angstrom}  cell{angstrom}
       E  3.52496e+01 -6.49010e+01 -1.07618e+02
       E  2.89853e+01  4.45066e+01 -6.51780e+01
       E  5.05533e+01 -5.39899e+00  2.85828e+01
3
# CELL(abcABC): 1322.94304  1322.94304  1322.94304    90.00000    90.00000    90.00000  Step:        6600  Bead:      21 positions{angstrom}  cell{angstrom}
       E  4.67587e+00 -1.06500e+02 -8.16504e+01
       E  1.34118e+01 -7.99343e+00 -5.94257e+01
       E  2.12595e+01 -1.28757e+01  1.81801e+01
3
# CELL(abcABC): 1322.94304  1322.94304  1322.94304    90.00000    90.00000    90.00000  Step:        6700  Bead:      21 positions{angstrom}  cell{angstrom}
       E -1.15807e+01 -1.10225e+02 -8.27376e+01
       E  4.15531e+01  7.69356e+00 -3.08395e+01
       E  2.65690e+01 -1.37787e+01  2.77433e+01
3
# CELL(abcABC): 1322.94304  1322.94304  1322.94304    90.00000    90.00000    90.00000  Step:        6800  Bead:      21 positions{angstrom}  cell{angstrom}
       E  3.64929e+00 -1.23347e+02 -7.24743e+01
       E  6.57516e+01 -2.49295e+01 -1.89543e+01
       E  4.98646e+00 -2.30839e+01  9.57886e-01
3
# CELL(abcABC): 1322.94304  1322.94304  1322.94304    90.00000    90.00000    90.00000  Step:        6900  Bead:      21 positions{angstrom}  cell{angstrom}
       E  3.26675e+01 -6.62434e+01 -3.46654e+01
       E  5.66871e+01 -3.82041e+01 -2.00124e+01
       E -3.38038e+01  3.67438e+00 -2.81050e+01
3
# CELL(abcABC): 1322.94304  1322.94304  1322.94304    90.00000    90.00000    90.00000  Step:        7000  Bead:      21 positions{angstrom}  cell{angstrom}
       E  2.07146e+01 -3.91446e+01 -2.06597e+01
       E  5.25049e+01  2.16593e+01 -4.78444e+01
       E  4.26276e+01  3.75772e+00 -3.20127e+01
3
# CELL(abcABC): 1322.94304  1322.94304  1322.94304    90.00000    90.00000    90.00000  Step:        7100  Bead:      21 positions{angstrom}  cell{angstrom}
       E  5.75017e+01 -1.09188e+00 -1.56704e+01
       E  2.10241e+01  1.56970e+01  8.27257e+00
       E  3.62864e+01  1.03894e+01 -2.74043e+01
3
# CELL(abcABC): 1322.94304  1322.94304  1322.94304    90.00000    90.00000    90.00000  Step:        7200  Bead:      21 positions{angstrom}  cell{angstrom}
       E  2.39871e+01 -3.98774e+01 -5.32017e+01
       E -4.94368e+01  6.86769e+01  1.61607e+01
       E  1.00799e+02  3.61451e+01 -3.45002e+01
3
# CELL(abcABC): 1322.94304  1322.94304  1322.94304    90.00000    90.00000    90.00000  Step:        7300  Bead:      21 positions{angstrom}  cell{angstrom}
       E  5.03107e+01 -4.03390e+01 -3.61086e+01
       E -3.51686e+01  2.68036e+01  2.01092e+01
       E  5.16814e+01  1.98644e+01 -2.08589e+01
3
# CELL(abcABC): 1322.94304  1322.94304  1322.94304    90.00000    90.00000    90.00000  Step:        7400  Bead:      21 positions{angstrom}  cell{angstrom}
       E -1.81195e+01 -1.80613e+01 -3.75750e+01
       E -4.77679e+01 -3.78583e+00 -6.40629e+00
       E  5.64453e+01  5.37630e+01 -1.68233e+01
3
# CELL(abcABC): 1322.94304  1322.94304  1322.94304    90.00000    90.00000    90.00000  Step:        7500  Bead:      21 positions{angstrom}  cell{angstrom}
       E -2.47702e+01 -6.97917e+01 -6.08780e+01
       E -2.81350e+01 -2.44332e+01  5.06366e-01
       E  6.76683e+01  1.79335e+00  1.06311e+00
3
# CELL(abcABC): 1322.94304  1322.94304  1322.94304    90.00000    90.00000    90.00000  Step:        7600  Bead:      21 positions{angstrom}  cell{angstrom}
       E -6.84199e+00 -4.25955e+01 -5.67916e+01
       E -3.95553e+01 -5.19453e+01 -5.17987e+00
       E  3.61864e+01  2.74442e+01 -1.60020e+01
3
# CELL(abcABC): 1322.94304  1322.94304  1322.94304    90.00000    90.00000    90.00000  Step:        7700  Bead:      21 positions{angstrom}  cell{angstrom}
       E  3.82430e+00 -7.71029e+01 -3.32836e+01
       E -6.21835e+00 -3.52316e+01 -1.98820e+01
       E  6.76494e+01 -1.63689e+01 -2.19529e+01
3
# CELL(abcABC): 1322.94304  1322.94304  1322.94304    90.00000    90.00000    90.00000  Step:        7800  Bead:      21 positions{angstrom}  cell{angstrom}
       E  2.75530e+01 -8.29384e+01 -6.68512e+01
       E  1.38724e+01 -2.53900e+01 -2.39968e+01
       E  4.28668e+01  4.92131e+00 -1.37802e+01
3
# CELL(abcABC): 1322.94304  1322.94304  1322.94304    90.00000    90.00000    90.00000  Step:        7900  Bead:      21 positions{angstrom}  cell{angstrom}
       E  2.47327e+01 -6.90701e+01 -2.94876e+01
       E  2.95196e+00 -3.61767e+01 -6.23262e+01
       E -3.02174e-01 -5.19796e+00 -5.15623e+01
3
# CELL(abcABC): 1322.94304  1322.94304  1322.94304    90.00000    90.00000    90.00000  Step:        8000  Bead:      21 positions{angstrom}  cell{angstrom}
       E  2.99423e+01 -2.15325e+01 -4.46732e+00
       E -5.56025e+00  1.19629e+01 -3.47163e+01
       E  2.18119e+01  5.21520e+00 -5.08074e+01
3
# CELL(abcABC): 1322.94304  1322.94304  1322.94304    90.00000    90.00000    90.00000  Step:        8100  Bead:      21 positions{angstrom}  cell{angstrom}
       E -3.00347e-01  3.80156e+01 -1.32965e+01
       E -5.67814e+01  8.61397e+00 -2.70099e+01
       E  1.24535e+01 -7.73426e+00 -4.29314e+00
3
# CELL(abcABC): 1322.94304  1322.94304  1322.94304    90.00000    90.00000    90.00000  Step:        8200  Bead:      21 positions{angstrom}  cell{angstrom}
       E -2.07795e+01  3.29783e+01 -3.54877e+01
       E -9.94928e+00 -1.46709e+01 -3.17534e+01
       E  2.81934e+00 -3.95430e+01  2.36033e+01
3
# CELL(abcABC): 1322.94304  1322.94304  1322.94304    90.00000    90.00000    90.00000  Step:        8300  Bead:      21 positions{angstrom}  cell{angstrom}
       E  5.97504e+00  5.27257e+01  2.56626e+01
       E -1.35873e+01  7.43169e+00 -1.57454e+01
       E -5.62222e+00 -5.97927e+01  5.09018e+01
3
# CELL(abcABC): 1322.94304  1322.94304  1322.94304    90.00000    90.00000    90.00000  Step:        8400  Bead:      21 positions{angstrom}  cell{angstrom}
       E -3.72698e+01  3.89655e+01 -3.23683e+00
       E  8.77276e+00  1.18682e+01 -2.31919e+01
       E -7.17508e+00 -5.73966e+01  3.70105e+01
3
# CELL(abcABC): 1322.94304  1322.94304  1322.94304    90.00000    90.00000    90.00000  Step:        8500  Bead:      21 positions{angstrom}  cell{angstrom}
       E -7.86453e+00 -2.73072e+01 -2.21653e+01
       E  1.25569e+01  2.17392e+01  1.63891e+01
       E  6.69513e+00 -3.54913e+01  6.57485e+01
3
# CELL(abcABC): 1322.94304  1322.94304  1322.94304    90.00000    90.00000    90.00000  Step:        8600  Bead:      21 positions{angstrom}  cell{angstrom}
       E -2.85381e+00 -4.02001e+01 -1.06793e+01
       E  1.59364e+01  6.83438e+00 -1.15964e+01
       E  5.48976e+01 -1.93590e+01  6.10807e+01
3
# CELL(abcABC): 1322.94304  1322.94304  1322.94304    90.00000    90.00000    90.00000  Step:        8700  Bead:      21 positions{angstrom}  cell{angstrom}
       E -9.52963e+00  2.49087e+00  1.76136e+01
       E  3.09547e+01 -9.00010e+00  1.49650e+01
       E  4.30639e+01 -9.09380e-01  3.24994e+01
3
# CELL(abcABC): 1322.94304  1322.94304  1322.94304    90.00000    90.00000    90.00000  Step:        8800  Bead:      21 positions{angstrom}  cell{angstrom}
       E -3.83482e+01  4.58971e+01 -7.10635e+00
       E  1.64062e+00 -2.01103e+00 -1.02505e+00
       E  6.78398e+01 -6.90238e+01  3.79981e+00
3
# CELL(abcABC): 1322.94304  1322.94304  1322.94304    90.00000    90.00000    90.00000  Step:        8900  Bead:      21 positions{angstrom}  cell{angstrom}
       E -6.21709e+01  2.85472e+01  3.45921e+01
       E  1.67681e+01 -1.66521e+01  1.64931e+01
       E  7.44355e+01 -5.40848e+01 -4.03898e+00
3
# CELL(abcABC): 1322.94304  1322.94304  1322.94304    90.00000    90.00000    90.00000  Step:        9000  Bead:      21 positions{angstrom}  cell{angstrom}
       E -4.83469e+01  1.53084e+01  4.31343e+01
       E  1.06054e+01  7.05233e+00  4.83024e+01
       E  1.23490e+01 -4.47223e+01  3.22894e+01
3
# CELL(abcABC): 1322.94304  1322.94304  1322.94304    90.00000    90.00000    90.00000  Step:        9100  Bead:      21 positions{angstrom}  cell{angstrom}
       E -2.45286e+01  3.24989e+01 -1.03715e+01
       E  3.26335e+01 -3.27369e+01  5.91985e+01
       E  1.21138e+01 -2.47629e+01 -2.22367e+01
3
# CELL(abcABC): 1322.94304  1322.94304  1322.94304    90.00000    90.00000    90.00000  Step:        9200  Bead:      21 positions{angstrom}  cell{angstrom}
       E -4.42069e+00  1.87366e+01 -5.19893e+00
       E -7.24141e+00  5.87798e+00  3.87798e+01
       E  5.06828e+01 -4.11014e+01 -1.51414e+01
3
# CELL(abcABC): 1322.94304  1322.94304  1322.94304    90.00000    90.00000    90.00000  Step:        9300  Bead:      21 positions{angstrom}  cell{angstrom}
       E  5.55373e+00 -6.38117e-01 -1.91114e+01
       E -5.88081e+01 -2.37280e+01  2.71312e+01
       E  1.18579e+01 -2.35446e+01 -2.11257e+00
3
# CELL(abcABC): 1322.94304  1322.94304  1322.94304    90.00000    90.00000    90.00000  Step:        9400  Bead:      21 positions{angstrom}  cell{angstrom}
       E  1.15305e+01  3.09554e+01 -5.56662e+01
       E -3.42125e+01  1.07389e+01  5.15910e+01
       E -1.75159e+01 -3.90339e+01  6.43299e+00
3
# CELL(abcABC): 1322.94304  1322.94304  1322.94304    90.00000    90.00000    90.00000  Step:        9500  Bead:      21 positions{angstrom}  cell{angstrom}
       E  2.35618e+01  3.14425e+01 -3.66608e+01
       E  2.13634e+00 -6.53127e+01  3.72704e+01
       E  1.51725e+01 -3.95577e+01  2.46838e+01
3
# CELL(abcABC): 1322.94304  1322.94304  1322.94304    90.00000    90.00000    90.00000  Step:        9600  Bead:      21 positions{angstrom}  cell{angstrom}
       E  1.57697e+01  1.29182e+01 -4.65047e+01
       E  4.46946e+01 -1.05977e+02  2.11703e+01
       E  5.04899e+00 -1.41619e+01 -5.08139e+00
3
# CELL(abcABC): 1322.94304  1322.94304  1322.94304    90.00000    90.00000    90.00000  Step:        9700  Bead:      21 positions{angstrom}  cell{angstrom}
       E -4.87256e+00 -4.73369e+01 -2.73541e+01
       E  4.44516e+00 -9.83939e+01  1.16689e+01
       E -5.93069e+00  3.81319e+00 -6.02544e+00
3
# CELL(abcABC): 1322.94304  1322.94304  1322.94304    90.00000    90.00000    90.00000  Step:        9800  Bead:      21 positions{angstrom}  cell{angstrom}
       E -2.80865e+01 -6.61472e+01 -2.29486e+01
       E  1.45904e+01 -6.28331e+01  2.07294e+01
       E -1.44598e+01 -3.25205e+01  3.27424e+01
3