3
# CELL(abcABC): 1322.94304  1322.94304  1322.94304    90.00000    90.00000    90.00000  Step:           0  Bead:      10 positions{angstrom}  cell{angstrom}
       E  0.00000e+00  0.00000e+00  0.00000e+00
       E  0.00000e+00  0.00000e+00  0.00000e+00
       E  0.00000e+00  0.00000e+00  0.00000e+00
3
# CELL(abcABC): 1322.94304  1322.94304  1322.94304    90.00000    90.00000    90.00000  Step:         100  Bead:      10 positions{angstrom}  cell{angstrom}
       E -1.10419e+00  9.06329e+00 -8.00631e+00
       E -7.16529e+00  1.19959e+01 -1.88774e+01
       E -2.10782e+01 -4.81131e+00 -2.12294e-01
3
# CELL(abcABC): 1322.94304  1322.94304  1322.94304    90.00000    90.00000    90.00000  Step:         200  Bead:      10 positions{angstrom}  cell{angstrom}
       E -4.69469e+00 -4.79110e+01 -1.84510e+01
       E  2.53452e+01  1.01561e+01 -3.12207e+01
       E -5.04123e+01 -5.64756e+00 -7.90918e+00
3
# CELL(abcABC): 1322.94304  1322.94304  1322.94304    90.00000    90.00000    90.00000  Step:         300  Bead:      10 positions{angstrom}  cell{angstrom}
       E -3.32480e+01 -2.73572e+00 -8.20958e+00
       E  2.31493e+01  1.50021e+01 -1.02861e+01
       E -2.75273e+01  1.56184e+01  2.67245e+01
3
# CELL(abcABC): 1322.94304  1322.94304  1322.94304    90.00000    90.00000    90.00000  Step:         400  Bead:      10 positions{angstrom}  cell{angstrom}
       E -1.08896e+01  2.55982e+01 -1.93250e+01
       E -1.99835e+00  3.40365e+01 -2.17351e+00
       E -4.74142e+00  9.02703e+00  2.85867e+01
3
# CELL(abcABC): 1322.94304  1322.94304  1322.94304    90.00000    90.00000    90.00000  Step:         500  Bead:      10 positions{angstrom}  cell{angstrom}
       E -2.46541e+01  1.72742e+01 -1.02310e+01
       E  2.14413e+01  5.21307e+00  1.72854e+01
       E -1.53766e+01  2.59729e+01  4.96356e+01
3
# CELL(abcABC): 1322.94304  1322.94304  1322.94304    90.00000    90.00000    90.00000  Step:         600  Bead:      10 positions{angstrom}  cell{angstrom}
       E -3.01690e+01  2.54401e+01 -2.76508e+01
       E -1.56420e+01 -5.06969e+00  4.44725e+01
       E  3.56169e+01  6.51396e+00  3.61701e+01
3
# CELL(abcABC): 1322.94304  1322.94304  1322.94304    90.00000    90.00000    90.00000  Step:         700  Bead:      10 positions{angstrom}  cell{angstrom}
       E -1.48390e+01  4.97922e+01 -4.13812e+01
       E  1.00744e+00  5.01775e+01  4.70384e+01
       E -6.62029e-01  1.43689e+00  1.75175e+01
3
# CELL(abcABC): 1322.94304  1322.94304  1322.94304    90.00000    90.00000    90.00000  Step:         800  Bead:      10 positions{angstrom}  cell{angstrom}
       E -4.34471e+01  3.99354e+01 -2.95409e+00
       E  2.30020e-01  4.36764e+01  7.29432e+00
       E -5.35937e+01  2.52897e+01  5.11660e+01
3
# CELL(abcABC): 1322.94304  1322.94304  1322.94304    90.00000    90.00000    90.00000  Step:         900  Bead:      10 positions{angstrom}  cell{angstrom}
       E  1.56453e+01 -5.98606e+00 -3.44457e+00
       E -9.92651e+00  1.09977e+01 -1.39815e+01
       E -4.39019e+01  2.16723e+01  8.04968e+01
3
# CELL(abcABC): 1322.94304  1322.94304  1322.94304    90.00000    90.00000    90.00000  Step:        1000  Bead:      10 positions{angstrom}  cell{angstrom}
       E  3.89581e+00  1.31138e+01 -1.76584e+01
       E  5.51991e+00 -2.39059e+01 -7.73412e+01
       E -3.13861e+01  8.96726e+00  8.74033e+01
3
# CELL(abcABC): 1322.94304  1322.94304  1322.94304    90.00000    90.00000    90.00000  Step:        1100  Bead:      10 positions{angstrom}  cell{angstrom}
       E  2.56757e+01  7.40599e+00 -7.93571e+01
       E  1.60174e+01 -2.17572e+01 -4.64257e+01
       E -3.33230e+01  3.21525e+01  5.21525e+01
3
# CELL(abcABC): 1322.94304  1322.94304  1322.94304    90.00000    90.00000    90.00000  Step:        1200  Bead:      10 positions{angstrom}  cell{angstrom}
       E -1.41210e+00  1.61175e+01 -9.65038e+01
       E  4.14247e+01 -3.49297e+01 -6.85492e+01
       E -5.04583e+00  3.35469e+01  2.47820e+01
3
# CELL(abcABC): 1322.94304  1322.94304  1322.94304    90.00000    90.00000    90.00000  Step:        1300  Bead:      10 positions{angstrom}  cell{angstrom}
       E -2.14929e+00  4.07189e+01 -7.45930e+01
       E  6.87390e+00 -3.87219e+01 -5.73831e+01
       E -1.76003e+01  2.89178e+01  4.04996e+01
3
# CELL(abcABC): 1322.94304  1322.94304  1322.94304    90.00000    90.00000    90.00000  Step:        1400  Bead:      10 positions{angstrom}  cell{angstrom}
       E -1.94563e+01  2.78284e+01 -8.12615e+01
       E -7.70898e-01 -2.43736e+01 -6.14742e+01
       E -6.04709e+01  4.59780e+01  1.26499e+01
3
# CELL(abcABC): 1322.94304  1322.94304  1322.94304    90.00000    90.00000    90.00000  Step:        1500  Bead:      10 positions{angstrom}  cell{angstrom}
       E -2.68896e+01  4.26082e+01 -7.49141e+01
       E -7.97737e+00 -2.07057e+01 -3.19541e+01
       E -5.22266e+01  3.03661e+01  2.21965e+01
3
# CELL(abcABC): 1322.94304  1322.94304  1322.94304    90.00000    90.00000    90.00000  Step:        1600  Bead:      10 positions{angstrom}  cell{angstrom}
       E  4.49631e+01  4.76802e+01 -6.55002e+01
       E -3.11549e+01  2.11911e+01  9.79858e+00
       E -5.28096e+01  6.02673e+01  4.82210e+00
3
# CELL(abcABC): 1322.94304  1322.94304  1322.94304    90.00000    90.00000    90.00000  Step:        1700  Bead:      10 positions{angstrom}  cell{angstrom}
       E  4.28849e+01  1.99134e+01 -2.47600e+01
       E  2.12826e+01  5.33048e+01  2.32338e+01
       E -3.28835e+01  6.14258e+01  1.70544e+01
3
# CELL(abcABC): 1322.94304  1322.94304  1322.94304    90.00000    90.00000    90.00000  Step:        1800  Bead:      10 positions{angstrom}  cell{angstrom}
       E -3.75928e+00  2.63582e+01  1.21546e+01
       E -3.42570e+01  5.55877e+01  3.59763e+00
       E -6.52754e+01  7.22018e+01  6.35316e+01
3
# CELL(abcABC): 1322.94304  1322.94304  1322.94304    90.00000    90.00000    90.00000  Step:        1900  Bead:      10 positions{angstrom}  cell{angstrom}
       E -4.95710e+01  1.64134e+01  5.01444e+01
       E -8.07408e+01  2.19208e+01  3.48812e+01
       E -7.12049e+01  4.82293e+01  3.06026e+01
3
# CELL(abcABC): 1322.94304  1322.94304  1322.94304    90.00000    90.00000    90.00000  Step:        2000  Bead:      10 positions{angstrom}  cell{angstrom}
       E -2.74318e+01  8.75179e+00  4.70493e+01
       E -4.44064e+01  2.97498e+01  2.08514e+01
       E -1.12125e+02  4.08378e+01 -3.25822e+00
3
# CELL(abcABC): 1322.94304  1322.94304  1322.94304    90.00000    90.00000    90.00000  Step:        2100  Bead:      10 positions{angstrom}  cell{angstrom}
       E -2.08276e+01 -2.03556e+01  5.47734e+01
       E -3.99301e+01  1.65258e+01 -1.40944e+01
       E -6.79309e+01  3.50507e+01  9.57986e+00
3
# CELL(abcABC): 1322.94304  1322.94304  1322.94304    90.00000    90.00000    90.00000  Step:        2200  Bead:      10 positions{angstrom}  cell{angstrom}
       E -4.93793e+01 -5.09910e+00  5.77774e+01
       E -2.78353e+01  1.70058e+01 -4.26328e+01
       E -3.11471e+01  5.42155e+01 -4.49473e-01
3
# CELL(abcABC): 1322.94304  1322.94304  1322.94304    90.00000    90.00000    90.00000  Step:        2300  Bead:      10 positions{angstrom}  cell{angstrom}
       E -3.40637e+01 -4.16720e+01  6.94828e+01
       E -1.88695e+01 -1.38306e+01 -2.09991e+01
       E -2.83210e+01  1.03298e+01  2.43464e+01
3
# CELL(abcABC): 1322.94304  1322.94304  1322.94304    90.00000    90.00000    90.00000  Step:        2400  Bead:      10 positions{angstrom}  cell{angstrom}
       E -1.85112e+01 -2.10204e+01  3.07096e+01
       E -8.44174e-01 -3.27380e+01 -1.97867e+01
       E  1.07178e+01  1.02116e+00  4.02582e+01
3
# CELL(abcABC): 1322.94304  1322.94304  1322.94304    90.00000    90.00000    90.00000  Step:        2500  Bead:      10 positions{angstrom}  cell{angstrom}
       E  9.88950e+00 -1.32719e+00  4.34669e+01
       E -7.65724e+00 -2.67779e+01 -5.04966e+01
       E  1.53840e+01 -6.30377e+00  4.40653e+01
3
# CELL(abcABC): 1322.94304  1322.94304  1322.94304    90.00000    90.00000    90.00000  Step:        2600  Bead:      10 positions{angstrom}  cell{angstrom}
       E  4.11962e+00  5.82653e+00  3.11987e+01
       E -6.00012e+01 -4.35680e+01 -8.83619e+01
       E -5.14315e+00 -1.87388e+01  5.71029e+01
3
# CELL(abcABC): 1322.94304  1322.94304  1322.94304    90.00000    90.00000    90.00000  Step:        2700  Bead:      10 positions{angstrom}  cell{angstrom}
       E  3.02635e+00 -4.52878e+00  4.25349e+01
       E -8.13256e+01 -4.35105e+01 -4.56506e+01
       E -3.65902e+00 -2.68951e+01  4.40694e+01
3
# CELL(abcABC): 1322.94304  1322.94304  1322.94304    90.00000    90.00000    90.00000  Step:        2800  Bead:      10 positions{angstrom}  cell{angstrom}
       E -3.33119e+01 -2.69759e+01 -8.08548e+00
       E -7.69305e+01 -7.79287e+01 -1.86346e+01
       E  1.40723e+01 -9.77360e+00  8.19766e+01
3
# CELL(abcABC): 1322.94304  1322.94304  1322.94304    90.00000    90.00000    90.00000  Step:        2900  Bead:      10 positions{angstrom}  cell{angstrom}
       E -1.64344e+01 -3.28910e+01 -2.16252e+01
       E -6.04486e+01 -7.23513e+01 -1.34671e+01
       E  1.48119e+01  2.68267e+01  3.27823e+01
3
# CELL(abcABC): 1322.94304  1322.94304  1322.94304    90.00000    90.00000    90.00000  Step:        3000  Bead:      10 positions{angstrom}  cell{angstrom}
       E  2.09223e+00 -2.05099e+01  5.00495e+00
       E -3.82796e+01 -8.05644e+01  2.64804e+01
       E  3.20929e+01  2.07279e+01  1.47533e+01
3
# CELL(abcABC): 1322.94304  1322.94304  1322.94304    90.00000    90.00000    90.00000  Step:        3100  Bead:      10 positions{angstrom}  cell{angstrom}
       E  8.07456e+00 -2.11348e+00  3.30504e+01
       E -5.64580e+01 -5.29132e+01  3.36717e+01
       E -1.59090e+01  3.14285e+01  1.13680e+01
3
# CELL(abcABC): 1322.94304  1322.94304  1322.94304    90.00000    90.00000    90.00000  Step:        3200  Bead:      10 positions{angstrom}  cell{angstrom}
       E  1.63053e+01  6.25892e+00  2.92026e+01
       E -9.53037e+01 -2.88956e+01  7.85551e+01
       E -9.99601e+00  6.77459e+01  1.09745e+01
3
# CELL(abcABC): 1322.94304  1322.94304  1322.94304    90.00000    90.00000    90.00000  Step:        3300  Bead:      10 positions{angstrom}  cell{angstrom}
       E  1.92411e+01 -1.91523e+01  3.10816e+01
       E -1.02260e+02 -4.88240e+01  6.62424e+01
       E -3.19559e+01  2.42672e+01  4.09768e+01
3
# CELL(abcABC): 1322.94304  1322.94304  1322.94304    90.00000    90.00000    90.00000  Step:        3400  Bead:      10 positions{angstrom}  cell{angstrom}
       E  1.14451e+01  2.40581e+01 -1.81743e+00
       E -5.76007e+01 -4.14775e+01  7.39302e+01
       E -6.42511e+01  3.50531e+01  7.04927e+01
3
# CELL(abcABC): 1322.94304  1322.94304  1322.94304    90.00000    90.00000    90.00000  Step:        3500  Bead:      10 positions{angstrom}  cell{angstrom}
       E -7.81047e+00  1.54494e+01  2.62955e+01
       E -1.11290e+01 -3.81637e+01  4.68768e+01
       E -4.34906e+01  3.98309e+01  7.91786e+01
3
# CELL(abcABC): 1322.94304  1322.94304  1322.94304    90.00000    90.00000    90.00000  Step:        3600  Bead:      10 positions{angstrom}  cell{angstrom}
       E -3.63866e+01  3.12846e+01  1.46822e+01
       E -2.56425e+01 -3.97110e+01  1.97598e+01
       E -6.96267e+01  2.45131e+01  1.34772e+01
3
# CELL(abcABC): 1322.94304  1322.94304  1322.94304    90.00000    90.00000    90.00000  Step:        3700  Bead:      10 positions{angstrom}  cell{angstrom}
       E -6.39370e+01  8.95099e+00  7.82102e+00
       E -1.71550e+01 -3.39428e+00  1.78225e+01
       E -2.48537e+01 -3.12498e+00  2.21992e+00
3
# CELL(abcABC): 1322.94304  1322.94304  1322.94304    90.00000    90.00000    90.00000  Step:        3800  Bead:      10 positions{angstrom}  cell{angstrom}
       E -8.55153e+01  1.54819e+01 -1.76028e+01
       E -2.40529e+01 -2.21562e+01 -2.27929e+01
       E -4.69210e+01 -1.34291e+01 -1.03123e+01
3
# CELL(abcABC): 1322.94304  1322.94304  1322.94304    90.00000    90.00000    90.00000  Step:        3900  Bead:      10 positions{angstrom}  cell{angstrom}
       E -5.86657e+01  2.67890e+01 -2.49867e+01
       E  9.56521e+00 -2.05655e+01 -3.43354e+01
       E -2.22442e+01  1.74840e-01 -3.87969e+01
3
# CELL(abcABC): 1322.94304  1322.94304  1322.94304    90.00000    90.00000    90.00000  Step:        4000  Bead:      10 positions{angstrom}  cell{angstrom}
       E -8.63898e+01  3.80365e+01 -3.79010e+01
       E -4.85270e+01  1.64035e+01  8.97701e+00
       E -6.66656e+01 -1.71922e+00 -3.76876e+00
3
# CELL(abcABC): 1322.94304  1322.94304  1322.94304    90.00000    90.00000    90.00000  Step:        4100  Bead:      10 positions{angstrom}  cell{angstrom}
       E -7.11893e+01  5.14527e+01 -4.33702e+01
       E -2.58599e+01  3.23801e+01  4.89588e+01
       E -5.86465e+01  2.00139e+01  5.97531e+01
3
# CELL(abcABC): 1322.94304  1322.94304  1322.94304    90.00000    90.00000    90.00000  Step:        4200  Bead:      10 positions{angstrom}  cell{angstrom}
       E -3.81709e+01  4.27094e+01 -5.04899e+01
       E -3.64806e+01  9.94899e+00  3.73975e+01
       E -3.77927e+01  3.88791e+01  5.18417e+01
3
# CELL(abcABC): 1322.94304  1322.94304  1322.94304    90.00000    90.00000    90.00000  Step:        4300  Bead:      10 positions{angstrom}  cell{angstrom}
       E -2.90499e+01  3.71247e+01 -7.56350e+01
       E -7.44846e+01  3.13824e+01  6.15712e+01
       E -4.49776e+01  3.48256e+01 -2.27647e+00
3
# CELL(abcABC): 1322.94304  1322.94304  1322.94304    90.00000    90.00000    90.00000  Step:        4400  Bead:      10 positions{angstrom}  cell{angstrom}
       E -4.36637e+01 -6.19698e+00 -9.06872e+01
       E -7.33901e+01  1.03133e+02  3.05701e+01
       E -8.04069e+01  4.91770e+00  9.23855e+00
3
# CELL(abcABC): 1322.94304  1322.94304  1322.94304    90.00000    90.00000    90.00000  Step:        4500  Bead:      10 positions{angstrom}  cell{angstrom}
       E -5.09165e+01 -3.19391e-01 -9.93808e+01
       E -6.31397e+01  7.12788e+01  6.12031e+00
       E -2.66731e+01 -9.47949e+00  1.45245e+01
3
# CELL(abcABC): 1322.94304  1322.94304  1322.94304    90.00000    90.00000    90.00000  Step:        4600  Bead:      10 positions{angstrom}  cell{angstrom}
       E  1.52684e+01  2.06464e+01 -6.40509e+01
       E -4.99414e+01  2.61531e+01 -1.81812e+01
       E  1.36880e+01 -8.01417e+00  3.68822e+01
3
# CELL(abcABC): 1322.94304  1322.94304  1322.94304    90.00000    90.00000    90.00000  Step:        4700  Bead:      10 positions{angstrom}  cell{angstrom}
       E  2.30402e+01  4.22838e+01 -5.49525e+01
       E -3.06896e+01  5.58765e+01 -3.13848e+01
       E  6.33006e+01 -2.50945e+00 -4.86028e-02
3
# CELL(abcABC): 1322.94304  1322.94304  1322.94304    90.00000    90.00000    90.00000  Step:        4800  Bead:      10 positions{angstrom}  cell{angstrom}
       E  2.77995e+01  8.23569e+01 -3.80227e+01
       E -6.86627e+01  3.85685e+01 -6.98340e+00
       E  2.83758e+01  3.11180e+01 -1.96929e+01
3
# CELL(abcABC): 1322.94304  1322.94304  1322.94304    90.00000    90.00000    90.00000  Step:        4900  Bead:      10 positions{angstrom}  cell{angstrom}
       E  2.70265e+01  3.29799e+01 -2.00425e+01
       E -6.54028e+01 -2.41031e+01 -2.81682e+01
       E  1.64372e+01  6.17605e+00 -2.59168e+01
3
# CELL(abcABC): 1322.94304  1322.94304  1322.94304    90.00000    90.00000    90.00000  Step:        5000  Bead:      10 positions{angstrom}  cell{angstrom}
       E  9.78643e+00  1.84135e+01  3.69447e+00
       E -3.85978e+01 -5.96645e+00 -4.36958e+01
       E  1.11719e+00 -1.86750e+01 -2.49410e+01
3
# CELL(abcABC): 1322.94304  1322.94304  1322.94304    90.00000    90.00000    90.00000  Step:        5100  Bead:      10 positions{angstrom}  cell{angstrom}
       E  1.72773e+01  4.54356e+00  4.80163e+01
       E -3.13344e+01 -1.81064e+01 -1.95851e+01
       E -3.14411e-02 -1.59529e+00  6.47550e+00
3
# CELL(abcABC): 1322.94304  1322.94304  1322.94304    90.00000    90.00000    90.00000  Step:        5200  Bead:      10 positions{angstrom}  cell{angstrom}
       E  1.71080e+01  5.72067e+00  2.55804e+01
       E -3.22868e+01  1.32094e+01 -2.62051e+01
       E  9.76560e+00  1.22020e+00  1.67893e+01
3
# CELL(abcABC): 1322.94304  1322.94304  1322.94304    90.00000    90.00000    90.00000  Step:        5300  Bead:      10 positions{angstrom}  cell{angstrom}
       E  2.20712e+01  6.10285e+01  4.07183e+01
       E -1.53788e+01  1.73840e+01 -2.01342e+01
       E  3.33244e+01  5.65612e+01  2.90899e+01
3
# CELL(abcABC): 1322.94304  1322.94304  1322.94304    90.00000    90.00000    90.00000  Step:        5400  Bead:      10 positions{angstrom}  cell{angstrom}
       E  7.75656e+00  3.35371e+01  2.96343e+01
       E -2.09570e+01  2.90020e+01 -4.85268e+01
       E -2.43387e-01  2.13363e+01  3.96441e+01
3
# CELL(abcABC): 1322.94304  1322.94304  1322.94304    90.00000    90.00000    90.00000  Step:        5500  Bead:      10 positions{angstrom}  cell{angstrom}
       E -7.67013e+00  4.67328e+01  5.56997e+01
       E -5.93409e+01  1.25235e+01 -4.21016e+01
       E -1.47331e+01 -8.22589e+00  7.01118e+00
3
# CELL(abcABC): 1322.94304  1322.94304  1322.94304    90.00000    90.00000    90.00000  Step:        5600  Bead:      10 positions{angstrom}  cell{angstrom}
       E -2.62763e+01  1.70348e+01  3.18318e+01
       E -5.24036e+01  7.03506e+00 -3.15524e+01
       E -1.56800e+01 -1.25237e+00  2.31721e+00
3
# CELL(abcABC): 1322.94304  1322.94304  1322.94304    90.00000    90.00000    90.00000  Step:        5700  Bead:      10 positions{angstrom}  cell{angstrom}
       E -1.94240e+01  3.84464e+01 -4.37648e+00
       E -3.72364e+01  3.77133e+01 -2.64529e+01
       E -2.16811e+00 -9.39563e+00  2.95886e+01
3
# CELL(abcABC): 1322.94304  1322.94304  1322.94304    90.00000    90.00000    90.00000  Step:        5800  Bead:      10 positions{angstrom}  cell{angstrom}
       E  1.03237e+01  1.26953e+01 -6.60185e+00
       E -4.97231e+01  3.38416e+01 -2.09128e+01
       E  2.87696e+00  1.08692e+01  5.62899e+00
3
# CELL(abcABC): 1322.94304  1322.94304  1322.94304    90.00000    90.00000    90.00000  Step:        5900  Bead:      10 positions{angstrom}  cell{angstrom}
       E  8.33894e+00 -1.97528e+01  6.31982e-01
       E -2.79199e+01  2.93322e+01 -3.82107e+01
       E -5.37099e-01 -3.87512e+00  1.04446e+01
3
# CELL(abcABC): 1322.94304  1322.94304  1322.94304    90.00000    90.00000    90.00000  Step:        6000  Bead:      10 positions{angstrom}  cell{angstrom}
       E  3.87722e+01 -2.43111e+01 -9.27306e+00
       E -3.25776e+01  1.31547e+01 -1.17904e+01
       E  7.72831e+00 -8.66729e+00  3.21492e+01
3
# CELL(abcABC): 1322.94304  1322.94304  1322.94304    90.00000    90.00000    90.00000  Step:        6100  Bead:      10 positions{angstrom}  cell{angstrom}
       E  2.62400e+01 -5.80167e+01 -5.47931e+01
       E  2.76302e+01 -1.13297e+01  3.78541e+01
       E -1.47447e+01 -1.73977e+01 -9.32734e+00
3
# CELL(abcABC): 1322.94304  1322.94304  1322.94304    90.00000    90.00000    90.00000  Step:        6200  Bead:      10 positions{angstrom}  cell{angstrom}
       E  8.62877e+00 -3.96667e+01 -8.37614e+01
       E  7.30904e+01  2.82511e+01 -8.36830e+00
       E  2.15989e+01 -1.61481e+00  1.51218e+01
3
# CELL(abcABC): 1322.94304  1322.94304  1322.94304    90.00000    90.00000    90.00000  Step:        6300  Bead:      10 positions{angstrom}  cell{angstrom}
       E  3.19950e+01 -4.41573e+01 -9.29197e+01
       E  9.01017e+01 -1.58706e+01 -3.81960e+01
       E  1.66336e+01 -6.07676e+00 -1.48791e+01
3
# CELL(abcABC): 1322.94304  1322.94304  1322.94304    90.00000    90.00000    90.00000  Step:        6400  Bead:      10 positions{angstrom}  cell{angstrom}
       E  3.76242e+01 -7.15364e+01 -8.00100e+01
       E  1.10510e+02 -1.07489e+01 -3.10066e+01
       E -2.08763e+01 -9.69764e+00  2.16562e+01
3
# CELL(abcABC): 1322.94304  1322.94304  1322.94304    90.00000    90.00000    90.00000  Step:        6500  Bead:      10 positions{angstrom}  cell{angstrom}
       E -2.82414e+00 -9.59135e+01 -1.08989e+02
       E  4.73311e+01 -3.07952e+01 -4.05280e+01
       E -6.91481e-01 -4.22375e+01  5.08995e+01
3
# CELL(abcABC): 1322.94304  1322.94304  1322.94304    90.00000    90.00000    90.00000  Step:        6600  Bead:      10 positions{angstrom}  cell{angstrom}
       E -2.16460e+01 -9.43893e+01 -1.01318e+02
       E  5.29103e+01 -4.15128e+01  2.65846e+01
       E  1.65451e+01 -1.13010e+01  3.19838e+01
3
# CELL(abcABC): 1322.94304  1322.94304  1322.94304    90.00000    90.00000    90.00000  Step:        6700  Bead:      10 positions{angstrom}  cell{angstrom}
       E -1.22099e+00 -6.57767e+01 -1.03568e+02
       E  3.57060e+01 -3.76854e+01 -3.25149e+00
       E -9.51367e+00  5.90357e+00  8.97442e-01
3
# CELL(abcABC): 1322.94304  1322.94304  1322.94304    90.00000    90.00000    90.00000  Step:        6800  Bead:      10 positions{angstrom}  cell{angstrom}
       E  9.38920e+00 -4.77074e+01 -5.20971e+01
       E  5.96402e+01 -3.27795e+00 -7.52771e+00
       E  3.17069e+00  4.60984e+01  8.84827e+00
3
# CELL(abcABC): 1322.94304  1322.94304  1322.94304    90.00000    90.00000    90.00000  Step:        6900  Bead:      10 positions{angstrom}  cell{angstrom}
       E -1.27287e+01 -5.41547e+01 -6.07154e+01
       E  1.12004e+01 -3.33280e+01 -3.20688e+01
       E  1.17762e+01  4.69683e+01  2.16169e+01
3
# CELL(abcABC): 1322.94304  1322.94304  1322.94304    90.00000    90.00000    90.00000  Step:        7000  Bead:      10 positions{angstrom}  cell{angstrom}
       E -3.29240e+01 -4.21297e+01 -3.97604e+01
       E -5.42959e+00 -1.70257e+01  7.71147e+00
       E  2.09653e+01  3.15170e+01  3.72551e+01
3
# CELL(abcABC): 1322.94304  1322.94304  1322.94304    90.00000    90.00000    90.00000  Step:        7100  Bead:      10 positions{angstrom}  cell{angstrom}
       E -7.34117e+00 -2.41816e+01 -2.37613e+01
       E -2.25283e+01 -1.64581e+01  3.85361e+01
       E  7.56828e+00  5.05981e+01  5.73861e+01
3
# CELL(abcABC): 1322.94304  1322.94304  1322.94304    90.00000    90.00000    90.00000  Step:        7200  Bead:      10 positions{angstrom}  cell{angstrom}
       E  3.75235e+00 -3.06766e+01 -8.06780e+00
       E -5.42273e+01  3.28477e+00  2.88606e+01
       E  4.57030e+01  4.12709e+01  1.07951e+01
3
# CELL(abcABC): 1322.94304  1322.94304  1322.94304    90.00000    90.00000    90.00000  Step:        7300  Bead:      10 positions{angstrom}  cell{angstrom}
       E -2.46039e+01 -3.26091e+01 -3.97569e+01
       E -8.90625e+00  7.48786e+01  4.92244e+01
       E  6.93817e+01  3.06860e+01 -4.12618e+00
3
# CELL(abcABC): 1322.94304  1322.94304  1322.94304    90.00000    90.00000    90.00000  Step:        7400  Bead:      10 positions{angstrom}  cell{angstrom}
       E -4.88201e+00 -4.40165e+01 -3.60568e+01
       E  8.90420e-01  6.87047e+01  1.97787e+01
       E  6.55434e+01  5.23914e+01 -1.01615e+01
3
# CELL(abcABC): 1322.94304  1322.94304  1322.94304    90.00000    90.00000    90.00000  Step:        7500  Bead:      10 positions{angstrom}  cell{angstrom}
       E -2.78276e+01 -7.42503e+01 -5.27058e+01
       E -2.04074e+01 -5.59303e+00  1.97722e+00
       E  6.04413e+01  3.69259e+01 -1.93180e+01
3
# CELL(abcABC): 1322.94304  1322.94304  1322.94304    90.00000    90.00000    90.00000  Step:        7600  Bead:      10 positions{angstrom}  cell{angstrom}
       E  8.11800e+00 -9.20352e+01 -3.14559e+01
       E -1.04845e+01 -5.24680e+01 -3.06718e+01
       E  6.31575e+01  3.17787e+01 -1.25194e+01
3
# CELL(abcABC): 1322.94304  1322.94304  1322.94304    90.00000    90.00000    90.00000  Step:        7700  Bead:      10 positions{angstrom}  cell{angstrom}
       E  1.66151e+01 -6.02178e+01 -2.33957e+01
       E  2.73740e+00 -7.03460e+01 -3.98959e+01
       E  1.76409e+01  3.91358e+01 -2.63507e+01
3
# CELL(abcABC): 1322.94304  1322.94304  1322.94304    90.00000    90.00000    90.00000  Step:        7800  Bead:      10 positions{angstrom}  cell{angstrom}
       E  1.04426e+01 -4.22377e+01 -2.94320e+01
       E -2.12033e+01 -7.84945e+01 -3.81724e+01
       E  4.30873e+01  2.02570e+01 -7.41457e+01
3
# CELL(abcABC): 1322.94304  1322.94304  1322.94304    90.00000    90.00000    90.00000  Step:        7900  Bead:      10 positions{angstrom}  cell{angstrom}
       E  2.16517e+01 -2.74660e+01 -3.85451e+01
       E -8.49262e+00 -4.16734e+01 -2.87854e+01
       E  1.49064e+01  4.00359e+01 -5.75197e+01
3
# CELL(abcABC): 1322.94304  1322.94304  1322.94304    90.00000    90.00000    90.00000  Step:        8000  Bead:      10 positions{angstrom}  cell{angstrom}
       E  4.25045e+00 -1.27376e+01 -3.12497e+01
       E  4.17607e+00 -3.69397e+01 -2.28840e+01
       E  6.37126e+00  5.51623e+01 -3.29558e+01
3
# CELL(abcABC): 1322.94304  1322.94304  1322.94304    90.00000    90.00000    90.00000  Step:        8100  Bead:      10 positions{angstrom}  cell{angstrom}
       E  5.10288e+01  8.35989e+00 -4.41902e+01
       E  1.99620e+01 -8.67462e+00 -1.34642e+01
       E  1.38174e+01  1.68552e+01 -2.98733e+00
3
# CELL(abcABC): 1322.94304  1322.94304  1322.94304    90.00000    90.00000    90.00000  Step:        8200  Bead:      10 positions{angstrom}  cell{angstrom}
       E  1.88292e+01  3.47737e+01 -5.92964e+01
       E -2.81268e+01 -9.12661e+00  8.79365e+00
       E  1.42262e+01 -1.59616e+01 -5.39078e+00
3
# CELL(abcABC): 1322.94304  1322.94304  1322.94304    90.00000    90.00000    90.00000  Step:        8300  Bead:      10 positions{angstrom}  cell{angstrom}
       E  2.85938e+01  3.17876e+01 -4.26642e+01
       E -1.67882e+01  3.85521e+01 -4.59692e+00
       E  3.98849e+01 -4.64393e+01  4.55604e+01
3
# CELL(abcABC): 1322.94304  1322.94304  1322.94304    90.00000    90.00000    90.00000  Step:        8400  Bead:      10 positions{angstrom}  cell{angstrom}
       E  6.23892e+00  2.13030e+01 -2.03690e+01
       E  2.64916e+01  4.21623e+01  2.15191e+01
       E  2.39378e+01 -6.48402e+01  5.77850e+01
3
# CELL(abcABC): 1322.94304  1322.94304  1322.94304    90.00000    90.00000    90.00000  Step:        8500  Bead:      10 positions{angstrom}  cell{angstrom}
       E -5.90378e+01 -5.81024e+00 -1.94153e+01
       E  2.51571e+01  1.20699e+01  2.74906e+00
       E  2.51800e+01 -2.53108e+01  3.86289e+01
3
# CELL(abcABC): 1322.94304  1322.94304  1322.94304    90.00000    90.00000    90.00000  Step:        8600  Bead:      10 positions{angstrom}  cell{angstrom}
       E -6.20318e+01  1.65608e+01 -6.43258e+00
       E  1.15227e+01  2.19073e+01 -5.73440e+01
       E  2.09118e+01 -1.45964e+01  2.04180e+01
3
# CELL(abcABC): 1322.94304  1322.94304  1322.94304    90.00000    90.00000    90.00000  Step:        8700  Bead:      10 positions{angstrom}  cell{angstrom}
       E -2.89918e+01  3.51040e+01  7.02413e+00
       E -3.86687e+00  1.22797e+01 -1.50942e+01
       E  8.69369e+00 -3.04898e+01  2.41460e+01
3
# CELL(abcABC): 1322.94304  1322.94304  1322.94304    90.00000    90.00000    90.00000  Step:        8800  Bead:      10 positions{angstrom}  cell{angstrom}
       E -1.11217e+01  4.21017e+01  2.93310e+01
       E  9.38469e+00 -4.51963e+00 -7.25367e-01
       E  2.93412e+01 -5.62997e+01  5.24941e+01
3
# CELL(abcABC): 1322.94304  1322.94304  1322.94304    90.00000    90.00000    90.00000  Step:        8900  Bead:      10 positions{angstrom}  cell{angstrom}
       E -3.01202e+01 -2.67834e+01  2.74711e+01
       E  4.68039e+00 -4.44745e+01  4.94841e+01
       E  7.05484e+00 -6.71871e+01  5.74267e+01
3
# CELL(abcABC): 1322.94304  1322.94304  1322.94304    90.00000    90.00000    90.00000  Step:        9000  Bead:      10 positions{angstrom}  cell{angstrom}
       E -1.03535e+01  1.35770e+01  2.09306e+01
       E -1.07824e+01 -2.10065e+00  4.05790e+01
       E  3.58550e+01 -3.97234e+01  6.96204e+00
3
# CELL(abcABC): 1322.94304  1322.94304  1322.94304    90.00000    90.00000    90.00000  Step:        9100  Bead:      10 positions{angstrom}  cell{angstrom}
       E  5.30684e+00  2.55218e+01 -6.03889e+00
       E -4.26741e+01 -1.37814e+01  4.88375e+01
       E  1.26684e+01 -6.31074e+00  2.95820e+01
3
# CELL(abcABC): 1322.94304  1322.94304  1322.94304    90.00000    90.00000    90.00000  Step:        9200  Bead:      10 positions{angstrom}  cell{angstrom}
       E -3.44802e+00  3.66446e+01  9.97179e+00
       E  8.46031e+00  8.99418e+00  4.48240e+01
       E  3.11987e-01 -7.50068e+01  2.83110e+01
3
# CELL(abcABC): 1322.94304  1322.94304  1322.94304    90.00000    90.00000    90.00000  Step:        9300  Bead:      10 positions{angstrom}  cell{angstrom}
       E  2.04581e+01  4.79680e+01 -2.25737e+01
       E -1.16305e+01 -9.82070e+00  8.93565e+00
       E  2.96470e+01 -5.65692e+01  8.99893e+00
3
# CELL(abcABC): 1322.94304  1322.94304  1322.94304    90.00000    90.00000    90.00000  Step:        9400  Bead:      10 positions{angstrom}  cell{angstrom}
       E  3.52041e+01  6.44274e+01 -5.52109e+01
       E -1.99968e+01 -4.46492e+01  3.46364e+01
       E  4.34533e+01 -5.04449e+01  2.78837e+01
3
# CELL(abcABC): 1322.94304  1322.94304  1322.94304    90.00000    90.00000    90.00000  Step:        9500  Bead:      10 positions{angstrom}  cell{angstrom}
       E  1.38150e+01  6.96881e+01 -5.14264e+01
       E -1.25330e+01 -5.14107e+01  3.72527e+01
       E  4.80354e+01 -3.99992e+01 -8.41236e+00
3
# CELL(abcABC): 1322.94304  1322.94304  1322.94304    90.00000    90.00000    90.00000  Step:        9600  Bead:      10 positions{angstrom}  cell{angstrom}
       E  2.76127e+01  4.91358e+01 -2.58402e+01
       E  4.87581e+01 -4.98125e+01  3.98929e+01
       E  1.60565e+01 -2.55341e+01 -1.39761e+00
3
# CELL(abcABC): 1322.94304  1322.94304  1322.94304    90.00000    90.00000    90.00000  Step:        9700  Bead:      10 positions{angstrom}  cell{angstrom}
       E  1.20615e+01 -1.93198e+01 -6.86575e+01
       E  6.80407e+01 -6.02976e+01  2.05723e+01
       E  2.13658e+01 -2.82285e+01  7.83035e+00
3
# CELL(abcABC): 1322.94304  1322.94304  1322.94304    90.00000    90.00000    90.00000  Step:        9800  Bead:      10 positions{angstrom}  cell{angstrom}
       E -1.65344e+01 -5.59640e+01 -7.81435e+01
       E  2.14531e+01 -7.81618e+01 -1.13713e+01
       E  2.89000e+01 -3.05878e+01  4.40309e-01
3