3
# CELL(abcABC): 1322.94304  1322.94304  1322.94304    90.00000    90.00000    90.00000  Step:           0  Bead:      27 positions{angstrom}  cell{angstrom}
       E  0.00000e+00  0.00000e+00  0.00000e+00
       E  0.00000e+00  0.00000e+00  0.00000e+00
       E  0.00000e+00  0.00000e+00  0.00000e+00
3
# CELL(abcABC): 1322.94304  1322.94304  1322.94304    90.00000    90.00000    90.00000  Step:         100  Bead:      27 positions{angstrom}  cell{angstrom}
       E  2.99077e+01 -6.10692e+00  2.79418e-01
       E  6.47319e+00 -2.87446e+01  4.69679e+00
       E -3.74004e+00 -2.36440e+01 -9.52038e+00
3
# CELL(abcABC): 1322.94304  1322.94304  1322.94304    90.00000    90.00000    90.00000  Step:         200  Bead:      27 positions{angstrom}  cell{angstrom}
       E  8.99821e+00  1.52314e+01  3.90581e+01
       E -1.16962e+01 -3.02527e+01  1.43449e+01
       E  1.29841e+01 -1.95189e+01  7.98502e+00
3
# CELL(abcABC): 1322.94304  1322.94304  1322.94304    90.00000    90.00000    90.00000  Step:         300  Bead:      27 positions{angstrom}  cell{angstrom}
       E  5.84945e+00  1.62842e+01  1.12812e+01
       E  2.50193e+01 -4.33129e+01  1.21611e+01
       E  2.95615e+01 -1.56937e+01 -6.07970e+00
3
# CELL(abcABC): 1322.94304  1322.94304  1322.94304    90.00000    90.00000    90.00000  Step:         400  Bead:      27 positions{angstrom}  cell{angstrom}
       E -1.18195e+01  2.33192e+01 -7.31230e+00
       E -5.70537e+00 -2.08633e+01 -1.59029e+01
       E  4.49913e+01 -9.88837e+00 -2.34396e+01
3
# CELL(abcABC): 1322.94304  1322.94304  1322.94304    90.00000    90.00000    90.00000  Step:         500  Bead:      27 positions{angstrom}  cell{angstrom}
       E  1.71655e+01 -1.01859e+01 -1.02203e+01
       E  2.57488e+01  5.34486e+00  2.25893e+01
       E  3.88260e+01 -1.90089e+01 -3.69021e+00
3
# CELL(abcABC): 1322.94304  1322.94304  1322.94304    90.00000    90.00000    90.00000  Step:         600  Bead:      27 positions{angstrom}  cell{angstrom}
       E  1.42373e+01  1.37756e+00  3.90565e+01
       E -1.01312e+01 -2.17841e+01  5.76558e+01
       E  4.53521e+01  4.88325e+00  1.02300e+01
3
# CELL(abcABC): 1322.94304  1322.94304  1322.94304    90.00000    90.00000    90.00000  Step:         700  Bead:      27 positions{angstrom}  cell{angstrom}
       E  1.45340e+01  1.73226e+01  5.42801e+00
       E -4.75730e+01 -1.11507e+01  4.48012e+01
       E -1.23216e+01  2.38617e+01  2.38338e+01
3
# CELL(abcABC): 1322.94304  1322.94304  1322.94304    90.00000    90.00000    90.00000  Step:         800  Bead:      27 positions{angstrom}  cell{angstrom}
       E  4.96714e+01  1.28249e+01 -6.63468e+00
       E  1.03682e+01 -2.32873e+01  5.33660e+01
       E -4.29676e+01  2.65818e+01  2.91964e+01
3
# CELL(abcABC): 1322.94304  1322.94304  1322.94304    90.00000    90.00000    90.00000  Step:         900  Bead:      27 positions{angstrom}  cell{angstrom}
       E  1.95812e+01  9.40778e+00 -7.10121e+00
       E  5.41090e+00  2.94249e+00  8.33590e+00
       E -2.55973e+01  1.16147e+01  8.34367e+01
3
# CELL(abcABC): 1322.94304  1322.94304  1322.94304    90.00000    90.00000    90.00000  Step:        1000  Bead:      27 positions{angstrom}  cell{angstrom}
       E  2.35468e+01  4.01329e+01  1.58612e-01
       E  5.60797e+00  1.12279e+01 -1.93757e+01
       E -1.15277e+01  5.57377e+00  6.43800e+01
3
# CELL(abcABC): 1322.94304  1322.94304  1322.94304    90.00000    90.00000    90.00000  Step:        1100  Bead:      27 positions{angstrom}  cell{angstrom}
       E  2.30528e+01  7.27570e+00  6.05823e-01
       E  1.25947e+01  2.53507e+01 -2.37684e+01
       E  1.15917e+01  4.53127e+00  3.29208e+01
3
# CELL(abcABC): 1322.94304  1322.94304  1322.94304    90.00000    90.00000    90.00000  Step:        1200  Bead:      27 positions{angstrom}  cell{angstrom}
       E -8.31724e+00 -1.29150e+01 -5.03234e+00
       E  1.67653e+01  2.44428e+01 -6.66318e+01
       E  7.01932e+00  8.11701e+01  1.80304e+01
3
# CELL(abcABC): 1322.94304  1322.94304  1322.94304    90.00000    90.00000    90.00000  Step:        1300  Bead:      27 positions{angstrom}  cell{angstrom}
       E -7.24023e+00  1.78457e+01 -2.41626e+01
       E  5.02218e+00  8.21956e+00 -8.78592e+01
       E -1.76386e+01  6.39454e+01 -6.18766e+00
3
# CELL(abcABC): 1322.94304  1322.94304  1322.94304    90.00000    90.00000    90.00000  Step:        1400  Bead:      27 positions{angstrom}  cell{angstrom}
       E -1.20945e+00  4.81815e+01 -6.27407e+01
       E -1.09759e+01 -3.65849e+01 -8.04429e+01
       E -1.15589e+01  3.37812e+01  1.77128e+01
3
# CELL(abcABC): 1322.94304  1322.94304  1322.94304    90.00000    90.00000    90.00000  Step:        1500  Bead:      27 positions{angstrom}  cell{angstrom}
       E -2.15664e+01  6.81327e+01 -6.08864e+01
       E -1.31167e+01  1.21687e+01 -4.45546e+01
       E  1.48489e+01  3.58166e+01  2.71667e+01
3
# CELL(abcABC): 1322.94304  1322.94304  1322.94304    90.00000    90.00000    90.00000  Step:        1600  Bead:      27 positions{angstrom}  cell{angstrom}
       E -1.10788e+01  5.16286e+01 -7.59233e+01
       E -6.79386e+00  8.22969e+00  1.11711e+01
       E -1.56760e+01  1.84914e+01  8.38991e+00
3
# CELL(abcABC): 1322.94304  1322.94304  1322.94304    90.00000    90.00000    90.00000  Step:        1700  Bead:      27 positions{angstrom}  cell{angstrom}
       E -5.23960e+01  4.52806e+01 -2.05375e+01
       E -1.38348e+01  1.21580e+01  1.83381e+01
       E -2.14193e+01  1.92936e+01 -3.95667e+00
3
# CELL(abcABC): 1322.94304  1322.94304  1322.94304    90.00000    90.00000    90.00000  Step:        1800  Bead:      27 positions{angstrom}  cell{angstrom}
       E -2.06562e+01  2.56134e+01  2.98673e+01
       E -5.55192e+01  1.74514e+01 -2.39218e-01
       E -4.83858e+01  4.53112e+01 -1.28984e+01
3
# CELL(abcABC): 1322.94304  1322.94304  1322.94304    90.00000    90.00000    90.00000  Step:        1900  Bead:      27 positions{angstrom}  cell{angstrom}
       E -2.63721e+01  3.96952e+01  1.72434e+01
       E -5.15683e+01  4.45605e+01  1.22318e+00
       E -4.58815e+01  3.42694e+01  2.64680e+01
3
# CELL(abcABC): 1322.94304  1322.94304  1322.94304    90.00000    90.00000    90.00000  Step:        2000  Bead:      27 positions{angstrom}  cell{angstrom}
       E -2.74149e+01 -1.06904e+01  4.21603e+01
       E -2.15908e+01 -4.25278e+00 -5.57912e-01
       E -6.58007e+01  5.24370e+01 -5.95917e+00
3
# CELL(abcABC): 1322.94304  1322.94304  1322.94304    90.00000    90.00000    90.00000  Step:        2100  Bead:      27 positions{angstrom}  cell{angstrom}
       E -2.54681e+01 -8.55214e+00  9.12943e+00
       E -3.10524e+01 -1.23669e+01  1.32906e+01
       E -2.22894e+01  4.61953e+01 -3.34016e+01
3
# CELL(abcABC): 1322.94304  1322.94304  1322.94304    90.00000    90.00000    90.00000  Step:        2200  Bead:      27 positions{angstrom}  cell{angstrom}
       E -5.53467e+01 -5.10194e+00  1.11822e+01
       E -2.42857e+01  2.69951e+01  1.34881e+01
       E  9.17102e+00 -5.20593e+00 -2.32023e+01
3
# CELL(abcABC): 1322.94304  1322.94304  1322.94304    90.00000    90.00000    90.00000  Step:        2300  Bead:      27 positions{angstrom}  cell{angstrom}
       E -3.50188e+01 -1.80230e+01  2.05110e+01
       E -1.42148e+01  1.10602e+01  4.84856e+00
       E -1.64373e+01 -1.05468e+01 -4.65899e+01
3
# CELL(abcABC): 1322.94304  1322.94304  1322.94304    90.00000    90.00000    90.00000  Step:        2400  Bead:      27 positions{angstrom}  cell{angstrom}
       E -7.43391e+01 -5.52939e+00  2.93729e+01
       E -3.97529e+01  2.57218e+00 -2.79431e+01
       E  2.00845e+00 -1.60460e+01 -5.29703e+01
3
# CELL(abcABC): 1322.94304  1322.94304  1322.94304    90.00000    90.00000    90.00000  Step:        2500  Bead:      27 positions{angstrom}  cell{angstrom}
       E -5.90748e+01 -1.10907e+01  4.73820e+01
       E -3.36628e+01 -4.99780e+01 -1.98983e+01
       E  3.31945e+01 -1.86249e+01  3.78987e+01
3
# CELL(abcABC): 1322.94304  1322.94304  1322.94304    90.00000    90.00000    90.00000  Step:        2600  Bead:      27 positions{angstrom}  cell{angstrom}
       E -7.29256e+01 -8.38971e+00  7.18365e+01
       E -4.89573e+01 -5.07017e+01 -1.66016e+01
       E  3.22933e+01 -3.15954e+01  6.73472e+01
3
# CELL(abcABC): 1322.94304  1322.94304  1322.94304    90.00000    90.00000    90.00000  Step:        2700  Bead:      27 positions{angstrom}  cell{angstrom}
       E -4.50897e+01 -6.96709e+01  9.42801e+01
       E -5.63437e+01 -4.11548e+01 -2.43269e+01
       E  1.85340e+01 -1.72686e+01  9.26773e+01
3
# CELL(abcABC): 1322.94304  1322.94304  1322.94304    90.00000    90.00000    90.00000  Step:        2800  Bead:      27 positions{angstrom}  cell{angstrom}
       E -6.08419e+01 -4.88947e+01  7.86864e+01
       E -5.72788e+01 -1.64070e+01 -9.54956e+00
       E  2.61416e+01 -2.20364e+01  4.04886e+01
3
# CELL(abcABC): 1322.94304  1322.94304  1322.94304    90.00000    90.00000    90.00000  Step:        2900  Bead:      27 positions{angstrom}  cell{angstrom}
       E -4.86080e+01 -4.61173e+01  5.95739e+01
       E -6.33365e+01 -2.45430e+01  1.60188e+01
       E  2.92150e+01 -6.07258e+01  3.68865e+01
3
# CELL(abcABC): 1322.94304  1322.94304  1322.94304    90.00000    90.00000    90.00000  Step:        3000  Bead:      27 positions{angstrom}  cell{angstrom}
       E -5.17884e+01 -2.99431e+01  4.77296e+01
       E -7.59837e+01 -6.32701e+01  3.70003e+00
       E  1.77748e+01 -1.93052e+01  2.03808e+01
3
# CELL(abcABC): 1322.94304  1322.94304  1322.94304    90.00000    90.00000    90.00000  Step:        3100  Bead:      27 positions{angstrom}  cell{angstrom}
       E -5.36367e+01 -4.54972e+01  2.85619e+01
       E -7.03666e+01 -7.00719e+01  7.61188e+01
       E  2.66868e+01  4.09523e+01 -5.49670e+00
3
# CELL(abcABC): 1322.94304  1322.94304  1322.94304    90.00000    90.00000    90.00000  Step:        3200  Bead:      27 positions{angstrom}  cell{angstrom}
       E -4.73768e+01 -4.26881e+01  4.67472e+01
       E -6.97069e+01 -2.32954e+01  7.19520e+01
       E  7.89480e+00  4.16045e+01  1.61943e+01
3
# CELL(abcABC): 1322.94304  1322.94304  1322.94304    90.00000    90.00000    90.00000  Step:        3300  Bead:      27 positions{angstrom}  cell{angstrom}
       E -5.35470e+01  4.43156e+01  5.84915e+01
       E -8.59115e+01 -3.47867e+00  6.48352e+01
       E  1.20339e+01  7.12608e+01  1.53060e+01
3
# CELL(abcABC): 1322.94304  1322.94304  1322.94304    90.00000    90.00000    90.00000  Step:        3400  Bead:      27 positions{angstrom}  cell{angstrom}
       E -9.15016e+01  5.59579e+01  1.00503e+02
       E -4.66246e+01 -3.72155e+01  1.31676e+01
       E  8.18728e+00  5.23859e+01  4.03216e+01
3
# CELL(abcABC): 1322.94304  1322.94304  1322.94304    90.00000    90.00000    90.00000  Step:        3500  Bead:      27 positions{angstrom}  cell{angstrom}
       E -6.76734e+01  1.76648e+01  8.63412e+01
       E -5.89188e+01 -6.14648e+01  5.14926e+01
       E -1.99778e+01  3.74170e+01  4.15025e+01
3
# CELL(abcABC): 1322.94304  1322.94304  1322.94304    90.00000    90.00000    90.00000  Step:        3600  Bead:      27 positions{angstrom}  cell{angstrom}
       E -7.68887e+01 -3.59420e+01  2.99239e+01
       E -1.65202e+01 -9.84100e+00  7.18576e+01
       E -8.49863e+01  7.60991e+00 -1.24003e+00
3
# CELL(abcABC): 1322.94304  1322.94304  1322.94304    90.00000    90.00000    90.00000  Step:        3700  Bead:      27 positions{angstrom}  cell{angstrom}
       E -1.06003e+02 -4.03059e+01  2.33664e+01
       E  9.13388e+00 -5.33543e+01  1.46346e+01
       E -7.08511e+01 -2.62048e+01 -8.87082e+00
3
# CELL(abcABC): 1322.94304  1322.94304  1322.94304    90.00000    90.00000    90.00000  Step:        3800  Bead:      27 positions{angstrom}  cell{angstrom}
       E -7.13236e+01  1.60764e+00  4.44206e+01
       E  1.66150e+01 -5.14653e+01  6.67291e+00
       E -1.57986e+01 -3.64154e+01  4.89313e-02
3
# CELL(abcABC): 1322.94304  1322.94304  1322.94304    90.00000    90.00000    90.00000  Step:        3900  Bead:      27 positions{angstrom}  cell{angstrom}
       E -5.74478e+01 -1.17807e+01  5.99343e+00
       E -1.58998e+01 -4.12544e+01  2.44000e+01
       E -1.65510e+01 -2.98123e+01  1.00320e+01
3
# CELL(abcABC): 1322.94304  1322.94304  1322.94304    90.00000    90.00000    90.00000  Step:        4000  Bead:      27 positions{angstrom}  cell{angstrom}
       E -4.32110e+01 -4.53232e+00  7.37469e+00
       E -5.36969e+01 -2.46639e+01  9.09363e+00
       E -2.67112e+01 -9.81470e+00 -5.11651e+01
3
# CELL(abcABC): 1322.94304  1322.94304  1322.94304    90.00000    90.00000    90.00000  Step:        4100  Bead:      27 positions{angstrom}  cell{angstrom}
       E -6.53030e+01 -2.64058e+01 -5.62328e+01
       E -7.34072e+01  9.39727e+00  1.36024e+01
       E -3.19645e+01 -1.13468e+01  1.06361e+01
3
# CELL(abcABC): 1322.94304  1322.94304  1322.94304    90.00000    90.00000    90.00000  Step:        4200  Bead:      27 positions{angstrom}  cell{angstrom}
       E -7.70086e+01 -1.15413e+00 -9.02720e+01
       E -5.02389e+01  1.36781e+01 -1.78995e+01
       E -4.55434e+01  6.73153e+00 -4.05715e+00
3
# CELL(abcABC): 1322.94304  1322.94304  1322.94304    90.00000    90.00000    90.00000  Step:        4300  Bead:      27 positions{angstrom}  cell{angstrom}
       E -2.56123e+01  1.48494e+01 -9.07984e+01
       E -3.41235e+01  4.51766e+01 -2.53673e+01
       E -3.39296e+00 -1.31802e+01  4.69864e-01
3
# CELL(abcABC): 1322.94304  1322.94304  1322.94304    90.00000    90.00000    90.00000  Step:        4400  Bead:      27 positions{angstrom}  cell{angstrom}
       E -9.24519e+00  2.25621e+01 -7.98514e+01
       E -6.22231e+01  3.74066e+01 -1.37749e+01
       E  5.08362e+00 -2.01080e+01  2.24907e+01
3
# CELL(abcABC): 1322.94304  1322.94304  1322.94304    90.00000    90.00000    90.00000  Step:        4500  Bead:      27 positions{angstrom}  cell{angstrom}
       E -4.10642e+01  9.81133e+00 -7.56951e+01
       E -6.07093e+01  4.40743e+01  1.34809e+01
       E -8.46601e+00 -5.59084e+01  3.06476e+00
3
# CELL(abcABC): 1322.94304  1322.94304  1322.94304    90.00000    90.00000    90.00000  Step:        4600  Bead:      27 positions{angstrom}  cell{angstrom}
       E -4.37766e+01  4.00562e+01 -7.53580e+01
       E -6.25676e+01  4.94292e+01  2.48777e+01
       E -1.67979e+01 -4.28615e+01  2.16491e+01
3
# CELL(abcABC): 1322.94304  1322.94304  1322.94304    90.00000    90.00000    90.00000  Step:        4700  Bead:      27 positions{angstrom}  cell{angstrom}
       E -4.19307e+01  3.55198e+01 -8.96170e+01
       E -5.41302e+01  2.50795e+01 -1.63876e+01
       E -1.03287e+00 -6.50113e+01  2.84164e+01
3
# CELL(abcABC): 1322.94304  1322.94304  1322.94304    90.00000    90.00000    90.00000  Step:        4800  Bead:      27 positions{angstrom}  cell{angstrom}
       E -1.93214e+01  7.75750e+01 -1.16661e+02
       E -5.57796e+01  4.85551e+00 -2.51908e+01
       E -1.94726e+01 -4.39765e+01  7.44325e+00
3
# CELL(abcABC): 1322.94304  1322.94304  1322.94304    90.00000    90.00000    90.00000  Step:        4900  Bead:      27 positions{angstrom}  cell{angstrom}
       E  2.69604e+01  5.44294e+01 -4.18221e+01
       E -5.98272e+01 -1.47968e+01 -4.39081e+01
       E  2.24435e+01 -6.91649e+01  2.55640e+00
3
# CELL(abcABC): 1322.94304  1322.94304  1322.94304    90.00000    90.00000    90.00000  Step:        5000  Bead:      27 positions{angstrom}  cell{angstrom}
       E  8.75992e+01  5.32462e+01 -2.07104e+01
       E -4.33455e+01 -8.44490e+00 -1.88106e+01
       E -7.97391e+00 -4.38099e+01 -1.25509e+01
3
# CELL(abcABC): 1322.94304  1322.94304  1322.94304    90.00000    90.00000    90.00000  Step:        5100  Bead:      27 positions{angstrom}  cell{angstrom}
       E  7.50727e+01  4.78877e+01  2.25531e+01
       E -3.89513e+01  7.26538e+00 -7.97245e+00
       E  5.37586e+00  5.22625e-01 -5.21270e+00
3
# CELL(abcABC): 1322.94304  1322.94304  1322.94304    90.00000    90.00000    90.00000  Step:        5200  Bead:      27 positions{angstrom}  cell{angstrom}
       E  2.61974e+01  1.72161e+01  1.03319e+01
       E -3.53347e+01  3.25439e+01 -1.82910e+01
       E  1.04122e+01  1.24890e+01 -1.16886e+01
3
# CELL(abcABC): 1322.94304  1322.94304  1322.94304    90.00000    90.00000    90.00000  Step:        5300  Bead:      27 positions{angstrom}  cell{angstrom}
       E  3.39605e+01 -3.58848e+01 -9.49060e+00
       E -4.14004e+01  1.62590e+01 -2.50661e+01
       E -4.53637e+01  2.88249e+01  4.62818e+01
3
# CELL(abcABC): 1322.94304  1322.94304  1322.94304    90.00000    90.00000    90.00000  Step:        5400  Bead:      27 positions{angstrom}  cell{angstrom}
       E  3.93632e+01  1.26769e+00 -6.85138e+00
       E -4.85684e+01  4.17854e+01 -3.33798e+00
       E -3.29228e+01  4.74087e+01  2.60494e+01
3
# CELL(abcABC): 1322.94304  1322.94304  1322.94304    90.00000    90.00000    90.00000  Step:        5500  Bead:      27 positions{angstrom}  cell{angstrom}
       E  2.38362e+01  1.77300e+01 -1.93794e+00
       E -2.78502e+01  4.61257e+00 -2.06684e+00
       E -7.84207e+00  5.72392e+01 -1.82888e+01
3
# CELL(abcABC): 1322.94304  1322.94304  1322.94304    90.00000    90.00000    90.00000  Step:        5600  Bead:      27 positions{angstrom}  cell{angstrom}
       E  1.57885e+00  1.82250e+01 -3.52678e+01
       E -4.81846e+00  1.32646e+01  1.01435e+01
       E -6.45098e+00  2.20066e+01  4.48116e+00
3
# CELL(abcABC): 1322.94304  1322.94304  1322.94304    90.00000    90.00000    90.00000  Step:        5700  Bead:      27 positions{angstrom}  cell{angstrom}
       E  2.07908e+01  7.94519e+00 -2.37530e+01
       E -6.76725e+00  2.67076e+00 -6.14344e+00
       E -2.15804e+01  3.86550e+00  1.37999e+01
3
# CELL(abcABC): 1322.94304  1322.94304  1322.94304    90.00000    90.00000    90.00000  Step:        5800  Bead:      27 positions{angstrom}  cell{angstrom}
       E  2.57527e+01  1.31879e+01 -2.57489e+01
       E -1.24961e+01 -1.69878e+01 -2.42190e+01
       E -8.96928e+00 -5.75099e+01 -2.25469e+01
3
# CELL(abcABC): 1322.94304  1322.94304  1322.94304    90.00000    90.00000    90.00000  Step:        5900  Bead:      27 positions{angstrom}  cell{angstrom}
       E  6.46162e+00  1.28371e+01  1.20990e+01
       E -3.26071e+00  3.55308e+01 -2.18774e+01
       E  2.95734e+01 -5.70010e+01  6.61248e+00
3
# CELL(abcABC): 1322.94304  1322.94304  1322.94304    90.00000    90.00000    90.00000  Step:        6000  Bead:      27 positions{angstrom}  cell{angstrom}
       E -7.49470e+00 -4.60089e+01  1.07223e+01
       E  6.18377e+00  2.40029e+01 -5.96640e+01
       E  1.85234e+00 -3.88335e+01 -1.27222e+01
3
# CELL(abcABC): 1322.94304  1322.94304  1322.94304    90.00000    90.00000    90.00000  Step:        6100  Bead:      27 positions{angstrom}  cell{angstrom}
       E  1.12654e+01 -6.09037e+01 -3.26692e+01
       E  3.40786e+01 -3.57774e+01 -4.69297e+01
       E  2.61299e+01 -2.16384e+01 -2.29609e+00
3
# CELL(abcABC): 1322.94304  1322.94304  1322.94304    90.00000    90.00000    90.00000  Step:        6200  Bead:      27 positions{angstrom}  cell{angstrom}
       E  5.55075e+00 -4.58827e+01 -6.08975e+01
       E  5.72304e+01  1.49383e+00  1.61037e+00
       E -6.62155e+00 -5.25358e+01  2.66052e+01
3
# CELL(abcABC): 1322.94304  1322.94304  1322.94304    90.00000    90.00000    90.00000  Step:        6300  Bead:      27 positions{angstrom}  cell{angstrom}
       E  2.73197e+01 -6.34575e+01 -9.40938e+01
       E  7.38401e+01 -1.96449e+01 -2.91189e+00
       E -4.36396e+00 -5.73117e+01  2.68239e+01
3
# CELL(abcABC): 1322.94304  1322.94304  1322.94304    90.00000    90.00000    90.00000  Step:        6400  Bead:      27 positions{angstrom}  cell{angstrom}
       E  6.17204e+01 -6.57637e+01 -1.16523e+02
       E  3.07571e+01 -3.26459e+01 -4.35668e+01
       E  9.56129e-01 -3.53232e+01  1.54263e+01
3
# CELL(abcABC): 1322.94304  1322.94304  1322.94304    90.00000    90.00000    90.00000  Step:        6500  Bead:      27 positions{angstrom}  cell{angstrom}
       E  4.02035e+01 -9.08593e+01 -1.02530e+02
       E  1.53018e+01  1.88465e+00 -4.59169e+01
       E -3.12242e+00  1.78886e+01 -8.18724e+00
3
# CELL(abcABC): 1322.94304  1322.94304  1322.94304    90.00000    90.00000    90.00000  Step:        6600  Bead:      27 positions{angstrom}  cell{angstrom}
       E  9.59083e+00 -1.14660e+02 -1.01611e+02
       E  1.59672e+01  3.81323e+00 -3.63652e+01
       E -2.06092e+01 -4.86655e-01  2.32089e+00
3
# CELL(abcABC): 1322.94304  1322.94304  1322.94304    90.00000    90.00000    90.00000  Step:        6700  Bead:      27 positions{angstrom}  cell{angstrom}
       E  3.64684e+01 -1.06151e+02 -1.14093e+02
       E  4.33690e+01  2.02004e+00 -3.58969e+01
       E -2.56580e+01 -1.78209e+01  2.25154e+01
3
# CELL(abcABC): 1322.94304  1322.94304  1322.94304    90.00000    90.00000    90.00000  Step:        6800  Bead:      27 positions{angstrom}  cell{angstrom}
       E  3.30883e+01 -1.05902e+02 -9.93245e+01
       E  7.68347e-01 -1.42016e+01 -2.84223e+01
       E -1.94385e+01 -4.63609e+01  4.53108e+01
3
# CELL(abcABC): 1322.94304  1322.94304  1322.94304    90.00000    90.00000    90.00000  Step:        6900  Bead:      27 positions{angstrom}  cell{angstrom}
       E  2.74295e+01 -1.03482e+02 -3.54630e+01
       E  4.72674e+01 -1.45520e+01 -2.42298e+01
       E  7.83035e+00 -2.72006e+01  1.36017e+01
3
# CELL(abcABC): 1322.94304  1322.94304  1322.94304    90.00000    90.00000    90.00000  Step:        7000  Bead:      27 positions{angstrom}  cell{angstrom}
       E  3.93252e+01 -4.53434e+01 -2.96730e+01
       E  1.76496e+01  2.31788e+01 -3.31013e+01
       E  3.28038e+01  1.38937e+01 -5.91611e-01
3
# CELL(abcABC): 1322.94304  1322.94304  1322.94304    90.00000    90.00000    90.00000  Step:        7100  Bead:      27 positions{angstrom}  cell{angstrom}
       E -1.05129e+01 -4.30615e+01 -3.47886e+01
       E  9.52428e+00  6.74780e+01  1.63808e+01
       E  4.51826e+01 -1.08543e+01 -1.44034e+01
3
# CELL(abcABC): 1322.94304  1322.94304  1322.94304    90.00000    90.00000    90.00000  Step:        7200  Bead:      27 positions{angstrom}  cell{angstrom}
       E -2.98499e+01 -1.92097e+01 -7.10436e+01
       E -2.34423e+01  2.74864e+01  2.73160e+01
       E  4.95972e+01  4.21493e+01 -2.78371e+01
3
# CELL(abcABC): 1322.94304  1322.94304  1322.94304    90.00000    90.00000    90.00000  Step:        7300  Bead:      27 positions{angstrom}  cell{angstrom}
       E  4.67994e+01 -1.49417e+01 -5.53162e+01
       E -5.40520e+01  2.35386e+01  2.09079e+01
       E  4.70573e+01  5.93461e+01 -6.29241e+00
3
# CELL(abcABC): 1322.94304  1322.94304  1322.94304    90.00000    90.00000    90.00000  Step:        7400  Bead:      27 positions{angstrom}  cell{angstrom}
       E  8.69061e+00 -2.27421e+01 -3.47284e+01
       E -3.11486e+01  1.15420e+01 -2.60297e+01
       E  6.03655e+01  4.55794e+01  7.25293e+00
3
# CELL(abcABC): 1322.94304  1322.94304  1322.94304    90.00000    90.00000    90.00000  Step:        7500  Bead:      27 positions{angstrom}  cell{angstrom}
       E -1.62014e+01 -4.31058e+01 -3.09813e+01
       E -7.17690e+00 -1.31893e+01  8.36189e+00
       E  2.86907e+01  5.56336e+01 -2.85834e+00
3
# CELL(abcABC): 1322.94304  1322.94304  1322.94304    90.00000    90.00000    90.00000  Step:        7600  Bead:      27 positions{angstrom}  cell{angstrom}
       E -4.27990e+01 -8.00735e+01 -5.26214e+01
       E -6.85653e+01 -3.72184e+01  1.20142e+01
       E  3.41520e+01  4.81683e+01 -2.92680e+01
3
# CELL(abcABC): 1322.94304  1322.94304  1322.94304    90.00000    90.00000    90.00000  Step:        7700  Bead:      27 positions{angstrom}  cell{angstrom}
       E -8.36616e+00 -4.56411e+01 -4.75557e+01
       E -2.09735e+01 -4.88748e+01 -1.74248e+00
       E  5.95097e+01  2.77407e+01 -3.70894e+01
3
# CELL(abcABC): 1322.94304  1322.94304  1322.94304    90.00000    90.00000    90.00000  Step:        7800  Bead:      27 positions{angstrom}  cell{angstrom}
       E -1.47148e+01 -5.21505e+01 -3.93552e+01
       E  4.96799e+00 -4.87896e+01 -2.90237e+01
       E  6.59571e+01  4.15612e+00 -2.10658e+01
3
# CELL(abcABC): 1322.94304  1322.94304  1322.94304    90.00000    90.00000    90.00000  Step:        7900  Bead:      27 positions{angstrom}  cell{angstrom}
       E  2.32799e+01 -3.47578e+01 -2.15535e+01
       E  2.89882e+01 -5.60955e+01 -4.04998e+01
       E  3.28578e+01  1.68074e+01 -6.70028e+01
3
# CELL(abcABC): 1322.94304  1322.94304  1322.94304    90.00000    90.00000    90.00000  Step:        8000  Bead:      27 positions{angstrom}  cell{angstrom}
       E  3.13873e+01  3.51678e+00 -4.63344e+01
       E  3.75722e+00 -3.51705e+01 -7.98515e+01
       E  5.51463e+01  9.64129e+00 -2.95431e+00
3
# CELL(abcABC): 1322.94304  1322.94304  1322.94304    90.00000    90.00000    90.00000  Step:        8100  Bead:      27 positions{angstrom}  cell{angstrom}
       E  2.48722e+01  5.70098e+01 -2.12762e+01
       E -3.01580e+01 -1.28367e+01 -7.15582e+01
       E  1.74114e+01 -2.39648e+01 -2.06776e+00
3
# CELL(abcABC): 1322.94304  1322.94304  1322.94304    90.00000    90.00000    90.00000  Step:        8200  Bead:      27 positions{angstrom}  cell{angstrom}
       E  2.27420e+01  7.35344e+01  3.27565e+01
       E  9.21937e+00  3.31717e+01 -1.39009e+00
       E -4.67459e+00 -3.49496e+01  9.94927e-01
3
# CELL(abcABC): 1322.94304  1322.94304  1322.94304    90.00000    90.00000    90.00000  Step:        8300  Bead:      27 positions{angstrom}  cell{angstrom}
       E  1.93895e+01  8.41345e+01 -3.64501e+00
       E  2.33401e+00 -2.58134e+01 -1.53007e+01
       E  2.64081e+01 -5.19540e+01  7.93597e+00
3
# CELL(abcABC): 1322.94304  1322.94304  1322.94304    90.00000    90.00000    90.00000  Step:        8400  Bead:      27 positions{angstrom}  cell{angstrom}
       E  6.94566e+00 -2.07699e+01 -1.34593e+01
       E  1.41696e+00  2.89916e+01  2.57667e+01
       E -1.40932e+01 -3.91182e+01  7.23951e+01
3
# CELL(abcABC): 1322.94304  1322.94304  1322.94304    90.00000    90.00000    90.00000  Step:        8500  Bead:      27 positions{angstrom}  cell{angstrom}
       E  1.13784e+01 -8.55200e+00 -1.11922e+01
       E -3.72581e+00 -1.66775e+00 -3.45288e+00
       E  1.12596e+00 -2.84443e+01  2.45255e+01
3
# CELL(abcABC): 1322.94304  1322.94304  1322.94304    90.00000    90.00000    90.00000  Step:        8600  Bead:      27 positions{angstrom}  cell{angstrom}
       E -9.02937e+00 -5.46951e+00 -2.88821e+01
       E  1.36923e+01 -2.18941e+01  2.51710e+01
       E  7.14931e+01  1.99087e+00  2.32922e+01
3
# CELL(abcABC): 1322.94304  1322.94304  1322.94304    90.00000    90.00000    90.00000  Step:        8700  Bead:      27 positions{angstrom}  cell{angstrom}
       E -1.75605e+01  1.88952e+01 -2.12668e+01
       E  2.62264e+01 -3.35230e+00  3.13274e+01
       E  8.08096e+01 -2.05989e+01  2.07359e+01
3
# CELL(abcABC): 1322.94304  1322.94304  1322.94304    90.00000    90.00000    90.00000  Step:        8800  Bead:      27 positions{angstrom}  cell{angstrom}
       E -5.24277e+01  1.03536e+01 -1.21974e+01
       E -1.08790e+01 -2.22430e+01  2.44324e+01
       E  5.91126e+01 -3.10737e+01  1.92733e+01
3
# CELL(abcABC): 1322.94304  1322.94304  1322.94304    90.00000    90.00000    90.00000  Step:        8900  Bead:      27 positions{angstrom}  cell{angstrom}
       E -3.14069e+01  3.03341e+01  1.66206e+01
       E -1.29644e+01 -3.41489e+01  2.84086e+01
       E  1.29485e+01 -6.23195e+01 -1.35233e+01
3
# CELL(abcABC): 1322.94304  1322.94304  1322.94304    90.00000    90.00000    90.00000  Step:        9000  Bead:      27 positions{angstrom}  cell{angstrom}
       E -1.73209e+01  4.88524e+01  1.95157e+01
       E -1.68462e+01 -6.18035e+01  4.97488e+01
       E -4.16609e-01 -6.92529e+01 -1.19635e+01
3
# CELL(abcABC): 1322.94304  1322.94304  1322.94304    90.00000    90.00000    90.00000  Step:        9100  Bead:      27 positions{angstrom}  cell{angstrom}
       E -2.02294e+01  3.28168e+01  4.35140e+00
       E -2.13795e+01  1.79406e+00  4.04282e+01
       E  5.30294e+01 -8.36375e+01  3.52474e+00
3
# CELL(abcABC): 1322.94304  1322.94304  1322.94304    90.00000    90.00000    90.00000  Step:        9200  Bead:      27 positions{angstrom}  cell{angstrom}
       E -4.34410e+00  4.13243e+01 -4.00780e+01
       E -7.96413e+00  5.21500e+00  1.03775e+01
       E  4.69374e+01 -5.64195e+01  1.89915e+01
3
# CELL(abcABC): 1322.94304  1322.94304  1322.94304    90.00000    90.00000    90.00000  Step:        9300  Bead:      27 positions{angstrom}  cell{angstrom}
       E  3.88591e+01 -1.18182e+01 -5.74337e+01
       E -1.18032e+01 -2.87680e+01  6.35377e+01
       E  3.86471e+01 -1.50403e+01 -5.34121e+00
3
# CELL(abcABC): 1322.94304  1322.94304  1322.94304    90.00000    90.00000    90.00000  Step:        9400  Bead:      27 positions{angstrom}  cell{angstrom}
       E  6.15285e+01  2.55262e+01 -5.31268e+01
       E -6.20655e+00 -2.32792e+01  3.98701e+01
       E  1.29408e+01  1.13589e+00 -1.71053e+01
3
# CELL(abcABC): 1322.94304  1322.94304  1322.94304    90.00000    90.00000    90.00000  Step:        9500  Bead:      27 positions{angstrom}  cell{angstrom}
       E  2.99022e+01  2.35075e+01 -3.38433e+01
       E  2.37262e+01 -2.13606e+01  2.81811e+01
       E  3.21645e+01  5.03925e+00  1.12675e+00
3
# CELL(abcABC): 1322.94304  1322.94304  1322.94304    90.00000    90.00000    90.00000  Step:        9600  Bead:      27 positions{angstrom}  cell{angstrom}
       E  2.53545e+01 -1.98605e+01 -5.08009e+01
       E  4.20911e+01 -4.25709e+01 -1.14373e+01
       E  1.21575e+01 -1.25645e+01 -3.67203e+00
3
# CELL(abcABC): 1322.94304  1322.94304  1322.94304    90.00000    90.00000    90.00000  Step:        9700  Bead:      27 positions{angstrom}  cell{angstrom}
       E -1.97630e+01 -5.54364e+01 -6.69138e+01
       E  3.85600e+01 -8.28541e+01  7.08421e-01
       E -5.10844e+01 -8.21035e+00 -9.61680e+00
3
# CELL(abcABC): 1322.94304  1322.94304  1322.94304    90.00000    90.00000    90.00000  Step:        9800  Bead:      27 positions{angstrom}  cell{angstrom}
       E -3.30608e+01 -5.58921e+01 -2.77596e+01
       E  4.25956e+01 -4.29346e+01 -8.15137e+00
       E -2.43844e+01 -1.90775e+01 -7.37685e+00
3