3
# CELL(abcABC): 1322.94304  1322.94304  1322.94304    90.00000    90.00000    90.00000  Step:           0  Bead:       8 positions{angstrom}  cell{angstrom}
       E  0.00000e+00  0.00000e+00  0.00000e+00
       E  0.00000e+00  0.00000e+00  0.00000e+00
       E  0.00000e+00  0.00000e+00  0.00000e+00
3
# CELL(abcABC): 1322.94304  1322.94304  1322.94304    90.00000    90.00000    90.00000  Step:         100  Bead:       8 positions{angstrom}  cell{angstrom}
       E -3.48412e+01  9.89172e+00  1.05425e+01
       E -3.04369e+01 -2.63156e+00 -3.13838e+01
       E -2.40857e+01  3.22860e+00 -1.11433e+01
3
# CELL(abcABC): 1322.94304  1322.94304  1322.94304    90.00000    90.00000    90.00000  Step:         200  Bead:       8 positions{angstrom}  cell{angstrom}
       E -4.11298e+00 -2.09319e+01 -5.30495e+01
       E  3.22720e+01  3.02265e+01 -4.00966e+01
       E -5.11527e+01 -1.99106e+00  4.01860e+00
3
# CELL(abcABC): 1322.94304  1322.94304  1322.94304    90.00000    90.00000    90.00000  Step:         300  Bead:       8 positions{angstrom}  cell{angstrom}
       E -2.35699e+01 -1.59420e+01 -3.10081e+01
       E  2.13208e+01 -5.50905e+00 -3.42589e+01
       E -2.83646e+01 -4.63497e+00  1.34366e+01
3
# CELL(abcABC): 1322.94304  1322.94304  1322.94304    90.00000    90.00000    90.00000  Step:         400  Bead:       8 positions{angstrom}  cell{angstrom}
       E -1.16701e+01  2.88924e+01 -1.20640e+01
       E -1.20740e+00  2.62129e+01 -1.47170e+01
       E -6.00205e+00  1.60249e+01  1.51690e+01
3
# CELL(abcABC): 1322.94304  1322.94304  1322.94304    90.00000    90.00000    90.00000  Step:         500  Bead:       8 positions{angstrom}  cell{angstrom}
       E -3.21767e+01  1.31517e+01 -5.99067e+00
       E  1.11862e+01 -3.16243e+00  1.52305e+01
       E -7.72907e+00  9.04226e+00  2.27695e+01
3
# CELL(abcABC): 1322.94304  1322.94304  1322.94304    90.00000    90.00000    90.00000  Step:         600  Bead:       8 positions{angstrom}  cell{angstrom}
       E -4.39569e+01  4.22817e+01 -4.87750e+01
       E -2.25516e+01 -2.04033e+01  3.05996e+01
       E  1.86367e+01 -1.06789e+01  8.72930e+00
3
# CELL(abcABC): 1322.94304  1322.94304  1322.94304    90.00000    90.00000    90.00000  Step:         700  Bead:       8 positions{angstrom}  cell{angstrom}
       E  6.87797e+00  2.22055e+01 -3.97294e+01
       E -8.23436e+00  2.02178e+01  2.90427e+01
       E  1.20991e+01 -7.68769e+00  3.64835e+01
3
# CELL(abcABC): 1322.94304  1322.94304  1322.94304    90.00000    90.00000    90.00000  Step:         800  Bead:       8 positions{angstrom}  cell{angstrom}
       E -5.15481e+01  3.08953e+01 -2.57544e+01
       E  2.35137e+01  4.73845e+01  2.67084e+01
       E -5.61381e+01  2.20572e+01  7.32069e+01
3
# CELL(abcABC): 1322.94304  1322.94304  1322.94304    90.00000    90.00000    90.00000  Step:         900  Bead:       8 positions{angstrom}  cell{angstrom}
       E  2.16367e+01 -3.39537e+00 -5.98110e+00
       E  5.86561e+00  3.39948e+00 -3.13526e+01
       E -2.49234e+01  3.52433e+01  8.42064e+01
3
# CELL(abcABC): 1322.94304  1322.94304  1322.94304    90.00000    90.00000    90.00000  Step:        1000  Bead:       8 positions{angstrom}  cell{angstrom}
       E  1.53476e+01  1.41785e+01 -2.66814e+01
       E  5.66948e+00 -3.82968e-01 -3.93566e+01
       E -5.65648e+01  6.26594e+00  8.26681e+01
3
# CELL(abcABC): 1322.94304  1322.94304  1322.94304    90.00000    90.00000    90.00000  Step:        1100  Bead:       8 positions{angstrom}  cell{angstrom}
       E  2.58168e+01  2.66172e+01 -7.55982e+01
       E  5.59628e+01 -1.01995e+01 -5.04944e+01
       E -4.21093e+01  1.65139e+01  5.18919e+01
3
# CELL(abcABC): 1322.94304  1322.94304  1322.94304    90.00000    90.00000    90.00000  Step:        1200  Bead:       8 positions{angstrom}  cell{angstrom}
       E  2.75518e+01  5.89306e+00 -7.74531e+01
       E  2.15560e+01 -2.95841e+01 -8.67107e+01
       E -2.84370e+01  1.49387e+01  3.21249e+01
3
# CELL(abcABC): 1322.94304  1322.94304  1322.94304    90.00000    90.00000    90.00000  Step:        1300  Bead:       8 positions{angstrom}  cell{angstrom}
       E -1.23780e+01  1.74061e+01 -7.57019e+01
       E  1.27199e+00 -5.39585e+01 -5.62244e+01
       E -3.21899e+01  3.73241e+01  4.22175e+01
3
# CELL(abcABC): 1322.94304  1322.94304  1322.94304    90.00000    90.00000    90.00000  Step:        1400  Bead:       8 positions{angstrom}  cell{angstrom}
       E -3.79700e+01  8.42250e+00 -7.45204e+01
       E -1.24933e+01 -3.79562e+01 -4.77706e+01
       E -5.13632e+01  2.98100e+01  1.70651e+01
3
# CELL(abcABC): 1322.94304  1322.94304  1322.94304    90.00000    90.00000    90.00000  Step:        1500  Bead:       8 positions{angstrom}  cell{angstrom}
       E -1.76349e+01  4.12545e+01 -6.08561e+01
       E -1.31473e+01 -3.10204e+01 -2.79186e+01
       E -5.81773e+01  4.48326e+01  8.06298e+00
3
# CELL(abcABC): 1322.94304  1322.94304  1322.94304    90.00000    90.00000    90.00000  Step:        1600  Bead:       8 positions{angstrom}  cell{angstrom}
       E -3.88460e-01  3.55222e+01 -3.49393e+01
       E -1.64885e+01  6.53223e+00 -2.28068e+01
       E -4.58230e+01  6.08658e+01  1.11432e+01
3
# CELL(abcABC): 1322.94304  1322.94304  1322.94304    90.00000    90.00000    90.00000  Step:        1700  Bead:       8 positions{angstrom}  cell{angstrom}
       E  1.06734e+01  4.71190e+00 -1.69193e+01
       E  6.30695e-01  1.92370e+01  1.11194e+01
       E -4.23675e+01  7.06313e+01  2.96713e+01
3
# CELL(abcABC): 1322.94304  1322.94304  1322.94304    90.00000    90.00000    90.00000  Step:        1800  Bead:       8 positions{angstrom}  cell{angstrom}
       E -2.61117e+01  7.83033e+00 -1.69774e+00
       E -1.14022e+01  3.53471e+01  2.41473e+00
       E -5.79028e+01  7.61406e+01  8.00410e+01
3
# CELL(abcABC): 1322.94304  1322.94304  1322.94304    90.00000    90.00000    90.00000  Step:        1900  Bead:       8 positions{angstrom}  cell{angstrom}
       E -1.93322e+01  2.67973e+01  1.79848e+01
       E -7.83892e+01  2.73178e+01  5.85628e+00
       E -7.77334e+01  6.94114e+01  3.16934e+01
3
# CELL(abcABC): 1322.94304  1322.94304  1322.94304    90.00000    90.00000    90.00000  Step:        2000  Bead:       8 positions{angstrom}  cell{angstrom}
       E -1.22885e+01  4.11214e+00  4.41716e+01
       E -6.00081e+01  3.13614e+01  3.04530e+01
       E -7.93015e+01  4.09848e+01 -7.45145e+00
3
# CELL(abcABC): 1322.94304  1322.94304  1322.94304    90.00000    90.00000    90.00000  Step:        2100  Bead:       8 positions{angstrom}  cell{angstrom}
       E -1.23709e+01 -1.50806e+01  5.09602e+01
       E -4.15932e+01  2.72092e+01 -3.53554e-01
       E -5.53112e+01  3.09834e+01  1.84376e+01
3
# CELL(abcABC): 1322.94304  1322.94304  1322.94304    90.00000    90.00000    90.00000  Step:        2200  Bead:       8 positions{angstrom}  cell{angstrom}
       E -3.49316e+01 -6.82423e+00  3.76474e+01
       E -1.11656e+01 -1.47436e+01 -1.43681e+01
       E -3.64057e+01  4.53608e+01  2.40878e+01
3
# CELL(abcABC): 1322.94304  1322.94304  1322.94304    90.00000    90.00000    90.00000  Step:        2300  Bead:       8 positions{angstrom}  cell{angstrom}
       E -3.22141e+01 -3.61669e+01  5.16795e+01
       E -3.58201e+01 -1.97667e+01  1.67539e+01
       E -1.62437e+01  2.82945e+01  5.95659e+01
3
# CELL(abcABC): 1322.94304  1322.94304  1322.94304    90.00000    90.00000    90.00000  Step:        2400  Bead:       8 positions{angstrom}  cell{angstrom}
       E -2.10802e+01 -2.56612e+01  2.93223e+01
       E  8.66310e+00 -1.94480e+01 -3.72948e+00
       E  6.05853e+00  7.44562e+00  2.13557e+01
3
# CELL(abcABC): 1322.94304  1322.94304  1322.94304    90.00000    90.00000    90.00000  Step:        2500  Bead:       8 positions{angstrom}  cell{angstrom}
       E -1.31710e+01 -2.24242e+01  3.91312e+01
       E -3.69153e+00 -3.11473e+01 -6.73040e+01
       E  1.25547e+01  9.01942e+00  7.15454e+01
3
# CELL(abcABC): 1322.94304  1322.94304  1322.94304    90.00000    90.00000    90.00000  Step:        2600  Bead:       8 positions{angstrom}  cell{angstrom}
       E  3.16314e+01 -4.76776e+01  7.31287e+01
       E -3.46793e+01 -3.15087e+01 -8.85742e+01
       E -1.55548e+01 -3.57500e+01  4.75243e+01
3
# CELL(abcABC): 1322.94304  1322.94304  1322.94304    90.00000    90.00000    90.00000  Step:        2700  Bead:       8 positions{angstrom}  cell{angstrom}
       E  2.08075e+01 -1.26548e+01  7.53475e+01
       E -7.09047e+01 -4.04347e+01 -5.65464e+01
       E -7.70156e+00 -2.12205e+01  4.20250e+01
3
# CELL(abcABC): 1322.94304  1322.94304  1322.94304    90.00000    90.00000    90.00000  Step:        2800  Bead:       8 positions{angstrom}  cell{angstrom}
       E -1.44403e+01 -4.43960e+01 -4.50812e+00
       E -4.43394e+01 -6.08305e+01 -3.13448e+01
       E  7.61375e+00 -9.48435e+00  8.46144e+01
3
# CELL(abcABC): 1322.94304  1322.94304  1322.94304    90.00000    90.00000    90.00000  Step:        2900  Bead:       8 positions{angstrom}  cell{angstrom}
       E -4.63382e+00 -4.02878e+01 -4.97116e+01
       E -4.87626e+01 -5.62661e+01 -3.16545e+01
       E  2.58451e+01  1.60306e+01  6.49275e+01
3
# CELL(abcABC): 1322.94304  1322.94304  1322.94304    90.00000    90.00000    90.00000  Step:        3000  Bead:       8 positions{angstrom}  cell{angstrom}
       E -2.56037e+00 -1.91117e+01 -2.14956e+01
       E -2.72008e+01 -4.94201e+01  1.98861e+01
       E  1.51590e+01  2.18031e+01 -2.56713e+00
3
# CELL(abcABC): 1322.94304  1322.94304  1322.94304    90.00000    90.00000    90.00000  Step:        3100  Bead:       8 positions{angstrom}  cell{angstrom}
       E  2.13202e+01 -1.40928e+01  2.68843e+01
       E -4.16768e+01 -8.06059e+01  5.28929e+01
       E -3.60868e+01  2.97586e+01  2.03868e+01
3
# CELL(abcABC): 1322.94304  1322.94304  1322.94304    90.00000    90.00000    90.00000  Step:        3200  Bead:       8 positions{angstrom}  cell{angstrom}
       E  2.28817e+01  2.55667e+01  5.89199e+01
       E -9.69950e+01 -5.32668e+01  4.76121e+01
       E -2.37611e+01  3.25346e+01  1.60648e+01
3
# CELL(abcABC): 1322.94304  1322.94304  1322.94304    90.00000    90.00000    90.00000  Step:        3300  Bead:       8 positions{angstrom}  cell{angstrom}
       E  2.77928e+01 -1.21949e+01  3.40577e+01
       E -8.87439e+01 -2.83431e+01  7.57979e+01
       E -4.22146e+01 -1.60610e+00  5.98172e+01
3
# CELL(abcABC): 1322.94304  1322.94304  1322.94304    90.00000    90.00000    90.00000  Step:        3400  Bead:       8 positions{angstrom}  cell{angstrom}
       E -1.64501e+01  4.18080e+01  1.24764e+01
       E -7.18967e+01 -5.36426e+01  6.50045e+01
       E -4.57476e+01  2.35378e+01  5.10475e+01
3
# CELL(abcABC): 1322.94304  1322.94304  1322.94304    90.00000    90.00000    90.00000  Step:        3500  Bead:       8 positions{angstrom}  cell{angstrom}
       E -2.93184e+01  2.99846e+01  3.30062e+00
       E -1.80168e+01 -4.74287e+01  4.40167e+01
       E -4.19916e+01  1.73318e+01  7.76042e+01
3
# CELL(abcABC): 1322.94304  1322.94304  1322.94304    90.00000    90.00000    90.00000  Step:        3600  Bead:       8 positions{angstrom}  cell{angstrom}
       E -2.70595e+01  6.15030e+00  2.39465e+01
       E -3.45668e+00 -3.65056e+01  3.38337e+01
       E -9.98757e+01 -1.26078e+00  3.16796e+01
3
# CELL(abcABC): 1322.94304  1322.94304  1322.94304    90.00000    90.00000    90.00000  Step:        3700  Bead:       8 positions{angstrom}  cell{angstrom}
       E -6.14685e+01  4.42401e+00  4.60748e+00
       E -3.68659e+00 -2.19978e+01  9.85371e+00
       E -6.23107e+01  2.10003e+00 -2.39406e+01
3
# CELL(abcABC): 1322.94304  1322.94304  1322.94304    90.00000    90.00000    90.00000  Step:        3800  Bead:       8 positions{angstrom}  cell{angstrom}
       E -8.14186e+01  1.09202e+01 -3.45398e+01
       E -1.81875e+01 -2.21534e+01 -1.79052e+01
       E -4.08462e+01 -2.25935e+01  3.44258e+00
3
# CELL(abcABC): 1322.94304  1322.94304  1322.94304    90.00000    90.00000    90.00000  Step:        3900  Bead:       8 positions{angstrom}  cell{angstrom}
       E -5.65327e+01  2.47160e+01 -2.19889e+01
       E -2.09964e+01 -1.11348e+01 -5.10583e+01
       E -4.29646e+01 -1.40948e+01 -2.41813e+00
3
# CELL(abcABC): 1322.94304  1322.94304  1322.94304    90.00000    90.00000    90.00000  Step:        4000  Bead:       8 positions{angstrom}  cell{angstrom}
       E -9.73399e+01  3.82860e+01 -3.19928e+01
       E -2.71640e+01  1.71993e+00  1.25867e+00
       E -4.92117e+01  4.23126e+00  1.31459e+01
3
# CELL(abcABC): 1322.94304  1322.94304  1322.94304    90.00000    90.00000    90.00000  Step:        4100  Bead:       8 positions{angstrom}  cell{angstrom}
       E -7.07935e+01  7.85851e+01 -4.55090e+01
       E -1.03445e+01  1.48594e+01  5.07343e+01
       E -7.31457e+01  2.21108e+01  4.29038e+01
3
# CELL(abcABC): 1322.94304  1322.94304  1322.94304    90.00000    90.00000    90.00000  Step:        4200  Bead:       8 positions{angstrom}  cell{angstrom}
       E -2.78950e+01  5.84817e+01 -3.41185e+01
       E -3.61189e+01  2.50694e+01  4.65386e+01
       E -7.28993e+01  1.96976e+01  4.23308e+01
3
# CELL(abcABC): 1322.94304  1322.94304  1322.94304    90.00000    90.00000    90.00000  Step:        4300  Bead:       8 positions{angstrom}  cell{angstrom}
       E -3.67039e+01  4.54472e+00 -7.17052e+01
       E -7.33401e+01  3.30813e+01  8.64133e+01
       E -7.03975e+01  2.09448e+01 -8.42753e+00
3
# CELL(abcABC): 1322.94304  1322.94304  1322.94304    90.00000    90.00000    90.00000  Step:        4400  Bead:       8 positions{angstrom}  cell{angstrom}
       E -5.88110e+01 -8.89483e+00 -7.03778e+01
       E -4.68712e+01  8.70894e+01  4.72755e+01
       E -5.23431e+01 -4.86940e+00 -1.65847e+01
3
# CELL(abcABC): 1322.94304  1322.94304  1322.94304    90.00000    90.00000    90.00000  Step:        4500  Bead:       8 positions{angstrom}  cell{angstrom}
       E -5.52574e+01  3.61931e+00 -7.60230e+01
       E -6.83807e+01  7.23815e+01  2.31429e+01
       E -5.00439e+01 -2.21572e+01  2.36177e+01
3
# CELL(abcABC): 1322.94304  1322.94304  1322.94304    90.00000    90.00000    90.00000  Step:        4600  Bead:       8 positions{angstrom}  cell{angstrom}
       E  3.55721e+00  5.04100e+01 -7.99267e+01
       E -6.18347e+01  2.20045e+01 -4.43038e+00
       E -6.42206e-02  3.25874e+00  5.14228e+01
3
# CELL(abcABC): 1322.94304  1322.94304  1322.94304    90.00000    90.00000    90.00000  Step:        4700  Bead:       8 positions{angstrom}  cell{angstrom}
       E -8.94107e+00  6.32307e+01 -8.33546e+01
       E -4.61487e+01  6.69932e+01 -3.14559e+01
       E  4.40256e+01 -6.09965e-01  1.09923e+01
3
# CELL(abcABC): 1322.94304  1322.94304  1322.94304    90.00000    90.00000    90.00000  Step:        4800  Bead:       8 positions{angstrom}  cell{angstrom}
       E  1.05526e+01  7.25333e+01 -9.84917e+00
       E -7.82120e+01  4.92730e+01  1.01381e+01
       E  2.75163e+01  2.54880e+01 -2.54618e+01
3
# CELL(abcABC): 1322.94304  1322.94304  1322.94304    90.00000    90.00000    90.00000  Step:        4900  Bead:       8 positions{angstrom}  cell{angstrom}
       E  2.82887e+01  6.01220e+01 -3.38655e+01
       E -7.92796e+01 -2.84632e+01 -4.84683e+01
       E  6.27344e+00  3.02550e+01 -4.67397e+01
3
# CELL(abcABC): 1322.94304  1322.94304  1322.94304    90.00000    90.00000    90.00000  Step:        5000  Bead:       8 positions{angstrom}  cell{angstrom}
       E  3.49183e+01  4.72237e+01  2.36517e+01
       E -4.12955e+01 -2.53193e+01 -1.58866e+01
       E -1.00437e+01  8.63035e+00 -4.94186e+01
3
# CELL(abcABC): 1322.94304  1322.94304  1322.94304    90.00000    90.00000    90.00000  Step:        5100  Bead:       8 positions{angstrom}  cell{angstrom}
       E  1.00960e+01  1.96892e+01 -9.50505e+00
       E -4.54198e+01 -2.10866e+01 -3.78831e+01
       E -1.00726e+01  2.56837e+01  4.32687e+00
3
# CELL(abcABC): 1322.94304  1322.94304  1322.94304    90.00000    90.00000    90.00000  Step:        5200  Bead:       8 positions{angstrom}  cell{angstrom}
       E  2.35029e+01  2.69082e+01  2.99417e+01
       E -5.84536e+01  1.75318e+01 -4.38853e+00
       E  1.13528e+00  4.19010e+00  1.27003e+01
3
# CELL(abcABC): 1322.94304  1322.94304  1322.94304    90.00000    90.00000    90.00000  Step:        5300  Bead:       8 positions{angstrom}  cell{angstrom}
       E  2.35708e+01  6.44205e+01  5.05555e+01
       E -3.26475e+01  3.16028e+01 -3.03074e+01
       E  2.51591e+01  5.05221e+01  2.51723e+01
3
# CELL(abcABC): 1322.94304  1322.94304  1322.94304    90.00000    90.00000    90.00000  Step:        5400  Bead:       8 positions{angstrom}  cell{angstrom}
       E  5.95658e+00  2.27214e+01  4.20719e+01
       E -3.37411e+01  2.48758e+01 -4.93581e+01
       E  3.24049e+01  1.16093e+01  5.31392e+01
3
# CELL(abcABC): 1322.94304  1322.94304  1322.94304    90.00000    90.00000    90.00000  Step:        5500  Bead:       8 positions{angstrom}  cell{angstrom}
       E -1.38990e+00  5.97932e+01  7.79407e+01
       E -4.62332e+01 -4.40768e+00 -4.00453e+01
       E -3.30036e+01  1.06028e+01  2.64051e+01
3
# CELL(abcABC): 1322.94304  1322.94304  1322.94304    90.00000    90.00000    90.00000  Step:        5600  Bead:       8 positions{angstrom}  cell{angstrom}
       E -5.83859e+00  1.22762e+01  2.56969e+01
       E -3.57031e+01  5.80079e+00 -2.13528e+01
       E -2.80484e+01  6.86683e+00  1.71891e+01
3
# CELL(abcABC): 1322.94304  1322.94304  1322.94304    90.00000    90.00000    90.00000  Step:        5700  Bead:       8 positions{angstrom}  cell{angstrom}
       E -3.48749e+01  2.31157e+00  1.21892e+01
       E -1.33763e+01  3.66180e+01 -1.59057e+01
       E -1.86195e+01  1.81976e+01  2.52522e+01
3
# CELL(abcABC): 1322.94304  1322.94304  1322.94304    90.00000    90.00000    90.00000  Step:        5800  Bead:       8 positions{angstrom}  cell{angstrom}
       E -7.52130e+00  2.32500e+01 -6.82517e+00
       E -6.62891e+00  1.08892e+01 -8.13625e-01
       E -1.24989e+00  4.10947e-01  5.67069e+00
3
# CELL(abcABC): 1322.94304  1322.94304  1322.94304    90.00000    90.00000    90.00000  Step:        5900  Bead:       8 positions{angstrom}  cell{angstrom}
       E -7.17029e+00 -8.42576e-01  6.00148e+00
       E -2.36181e+01  4.33674e+01 -4.25428e+01
       E -1.18949e+01 -1.71752e+01  9.31576e-01
3
# CELL(abcABC): 1322.94304  1322.94304  1322.94304    90.00000    90.00000    90.00000  Step:        6000  Bead:       8 positions{angstrom}  cell{angstrom}
       E  4.72383e+01 -3.06109e+01 -6.83083e+00
       E -1.69153e+01  3.05682e+00 -8.68316e+00
       E  9.09000e+00 -2.89943e+01  1.24006e+00
3
# CELL(abcABC): 1322.94304  1322.94304  1322.94304    90.00000    90.00000    90.00000  Step:        6100  Bead:       8 positions{angstrom}  cell{angstrom}
       E  5.15586e+01 -5.08433e+01 -5.92467e+01
       E  1.76928e+01  2.34454e+01  1.98579e+01
       E  1.36781e+01 -2.83037e+01 -2.31049e+01
3
# CELL(abcABC): 1322.94304  1322.94304  1322.94304    90.00000    90.00000    90.00000  Step:        6200  Bead:       8 positions{angstrom}  cell{angstrom}
       E  2.89866e+01 -5.07648e+01 -1.01886e+02
       E  8.39796e+01 -1.05610e+01 -3.11100e+01
       E  2.39225e+01  1.70033e+00 -1.58250e+01
3
# CELL(abcABC): 1322.94304  1322.94304  1322.94304    90.00000    90.00000    90.00000  Step:        6300  Bead:       8 positions{angstrom}  cell{angstrom}
       E  5.09999e+01 -5.64611e+01 -5.70531e+01
       E  7.17889e+01 -3.17190e+01 -2.56244e+01
       E  2.72151e+01 -3.35258e+01 -7.81306e-01
3
# CELL(abcABC): 1322.94304  1322.94304  1322.94304    90.00000    90.00000    90.00000  Step:        6400  Bead:       8 positions{angstrom}  cell{angstrom}
       E  3.27341e+01 -7.24195e+01 -8.35360e+01
       E  1.16375e+02 -5.37324e+01 -4.61255e+01
       E  9.90747e+00 -1.90856e+01  1.86584e+01
3
# CELL(abcABC): 1322.94304  1322.94304  1322.94304    90.00000    90.00000    90.00000  Step:        6500  Bead:       8 positions{angstrom}  cell{angstrom}
       E -2.47667e+01 -1.04813e+02 -1.04451e+02
       E  5.59223e+01 -5.74316e+01 -4.99017e+01
       E  9.41136e+00 -3.74803e+01  1.71791e+01
3
# CELL(abcABC): 1322.94304  1322.94304  1322.94304    90.00000    90.00000    90.00000  Step:        6600  Bead:       8 positions{angstrom}  cell{angstrom}
       E -3.90216e+01 -8.48895e+01 -1.38203e+02
       E  5.05487e+00 -3.42561e+01 -2.67284e+01
       E  6.97050e+00 -1.19298e+01  2.85379e+01
3
# CELL(abcABC): 1322.94304  1322.94304  1322.94304    90.00000    90.00000    90.00000  Step:        6700  Bead:       8 positions{angstrom}  cell{angstrom}
       E -3.33730e+00 -6.85401e+01 -9.91586e+01
       E  4.26172e+01 -4.39708e+01 -1.36715e+01
       E  1.03325e+01  7.72348e+00  1.39524e+01
3
# CELL(abcABC): 1322.94304  1322.94304  1322.94304    90.00000    90.00000    90.00000  Step:        6800  Bead:       8 positions{angstrom}  cell{angstrom}
       E  8.00426e+00 -5.51577e+01 -6.44626e+01
       E  2.79222e+01  1.50487e+01 -2.49439e+01
       E -9.52729e+00  3.63490e+01  1.75323e+01
3
# CELL(abcABC): 1322.94304  1322.94304  1322.94304    90.00000    90.00000    90.00000  Step:        6900  Bead:       8 positions{angstrom}  cell{angstrom}
       E -1.49874e+01 -6.11712e+01 -5.65962e+01
       E  2.17191e+01 -4.87256e+01 -2.82228e+01
       E  1.67513e+01  2.60443e+01  8.88121e+00
3
# CELL(abcABC): 1322.94304  1322.94304  1322.94304    90.00000    90.00000    90.00000  Step:        7000  Bead:       8 positions{angstrom}  cell{angstrom}
       E -4.91267e+01 -5.46437e+01 -4.30135e+01
       E -1.00963e+01 -1.35079e+01  7.49366e+00
       E  1.37053e+01  5.84991e+01  3.21062e+01
3
# CELL(abcABC): 1322.94304  1322.94304  1322.94304    90.00000    90.00000    90.00000  Step:        7100  Bead:       8 positions{angstrom}  cell{angstrom}
       E -3.28145e+01 -4.08669e+01 -2.82640e+01
       E -1.66172e+01  6.74259e+00  3.90208e+01
       E  6.56598e+00  2.04485e+01  4.36804e+01
3
# CELL(abcABC): 1322.94304  1322.94304  1322.94304    90.00000    90.00000    90.00000  Step:        7200  Bead:       8 positions{angstrom}  cell{angstrom}
       E -1.10421e+01 -2.92646e+00 -1.55948e+01
       E -4.58321e+01  2.88737e+01  4.08260e+01
       E  4.90367e+01  1.91763e+01  2.77099e+01
3
# CELL(abcABC): 1322.94304  1322.94304  1322.94304    90.00000    90.00000    90.00000  Step:        7300  Bead:       8 positions{angstrom}  cell{angstrom}
       E -9.59536e-01 -2.80966e+01 -2.28129e+01
       E -1.15270e+01  4.43383e+01  3.68570e+01
       E  6.41128e+01  4.30219e+01 -3.97442e+01
3
# CELL(abcABC): 1322.94304  1322.94304  1322.94304    90.00000    90.00000    90.00000  Step:        7400  Bead:       8 positions{angstrom}  cell{angstrom}
       E -1.59275e+01 -6.82519e+01 -2.33315e+01
       E -7.87501e+00  4.32506e+01  5.28334e+01
       E  1.12201e+02  6.87156e+01 -7.25571e+00
3
# CELL(abcABC): 1322.94304  1322.94304  1322.94304    90.00000    90.00000    90.00000  Step:        7500  Bead:       8 positions{angstrom}  cell{angstrom}
       E -1.78020e+01 -6.56099e+01 -3.07721e+01
       E -1.62624e+01  1.31579e+01  1.23570e+01
       E  4.35866e+01  6.20162e+01 -4.72386e+01
3
# CELL(abcABC): 1322.94304  1322.94304  1322.94304    90.00000    90.00000    90.00000  Step:        7600  Bead:       8 positions{angstrom}  cell{angstrom}
       E -2.02418e+01 -9.60138e+01 -2.51066e+00
       E -2.34408e+01 -4.95060e+01 -2.28708e+01
       E  7.51811e+01  2.15399e+01  1.74915e+01
3
# CELL(abcABC): 1322.94304  1322.94304  1322.94304    90.00000    90.00000    90.00000  Step:        7700  Bead:       8 positions{angstrom}  cell{angstrom}
       E -9.15961e+00 -5.37733e+01 -3.54423e+01
       E -2.88519e+01 -6.57921e+01 -5.74107e+01
       E  5.60359e+01  2.87841e+01 -1.31611e+01
3
# CELL(abcABC): 1322.94304  1322.94304  1322.94304    90.00000    90.00000    90.00000  Step:        7800  Bead:       8 positions{angstrom}  cell{angstrom}
       E  2.52852e+01 -3.16884e+01 -5.49321e+01
       E  5.61179e+00 -4.49886e+01 -4.29284e+01
       E  5.84513e+01  1.49694e+01 -8.69013e+01
3
# CELL(abcABC): 1322.94304  1322.94304  1322.94304    90.00000    90.00000    90.00000  Step:        7900  Bead:       8 positions{angstrom}  cell{angstrom}
       E  1.02878e+01 -3.69515e+01 -4.00768e+01
       E  2.76270e+01 -2.90295e+01 -3.50754e+01
       E  4.32948e+01  2.43298e+01 -6.08257e+01
3
# CELL(abcABC): 1322.94304  1322.94304  1322.94304    90.00000    90.00000    90.00000  Step:        8000  Bead:       8 positions{angstrom}  cell{angstrom}
       E -1.34462e+00  1.99368e+01 -4.23210e+00
       E  3.71136e+01 -3.03860e+01 -4.91443e+01
       E -1.18168e+00  2.06773e+01 -4.02897e+00
3
# CELL(abcABC): 1322.94304  1322.94304  1322.94304    90.00000    90.00000    90.00000  Step:        8100  Bead:       8 positions{angstrom}  cell{angstrom}
       E  3.57491e+01 -1.00444e+01 -1.14509e+01
       E  2.34814e+00 -2.41876e+01 -2.11976e+00
       E  3.93763e+00  6.35510e-01  9.31599e+00
3
# CELL(abcABC): 1322.94304  1322.94304  1322.94304    90.00000    90.00000    90.00000  Step:        8200  Bead:       8 positions{angstrom}  cell{angstrom}
       E  1.83241e+01  3.02122e+01 -5.30430e+01
       E  1.68294e+01  3.92205e+00  2.41814e+01
       E  2.20619e+01 -1.02416e+01  1.52054e+01
3
# CELL(abcABC): 1322.94304  1322.94304  1322.94304    90.00000    90.00000    90.00000  Step:        8300  Bead:       8 positions{angstrom}  cell{angstrom}
       E  3.50262e+01  2.21683e+01 -7.57585e+01
       E -1.87273e+01  1.23225e+01  3.08713e+01
       E  4.24324e+01 -2.71798e+01  1.11551e+01
3
# CELL(abcABC): 1322.94304  1322.94304  1322.94304    90.00000    90.00000    90.00000  Step:        8400  Bead:       8 positions{angstrom}  cell{angstrom}
       E  1.87062e+01  3.39850e+01 -3.58618e+01
       E  6.00901e+00  1.64326e+01  1.87911e+01
       E  5.12730e+01 -3.95796e+00  3.82271e+01
3
# CELL(abcABC): 1322.94304  1322.94304  1322.94304    90.00000    90.00000    90.00000  Step:        8500  Bead:       8 positions{angstrom}  cell{angstrom}
       E -3.61018e+01  1.22419e+01 -1.47525e+01
       E  3.78793e+01 -1.63825e+01  1.06681e+01
       E  5.31260e+01 -6.88864e+00  3.96071e+01
3
# CELL(abcABC): 1322.94304  1322.94304  1322.94304    90.00000    90.00000    90.00000  Step:        8600  Bead:       8 positions{angstrom}  cell{angstrom}
       E -5.13874e+01  3.45013e+01 -4.32120e+00
       E  3.74916e+01  2.80420e+01 -3.51363e+01
       E  2.92470e+01 -1.57920e+01  2.05876e+01
3
# CELL(abcABC): 1322.94304  1322.94304  1322.94304    90.00000    90.00000    90.00000  Step:        8700  Bead:       8 positions{angstrom}  cell{angstrom}
       E -2.27052e+01  2.41584e+01 -5.22599e+00
       E  2.78331e+01  8.65049e+00 -2.42813e+00
       E  2.63110e+01 -5.23715e+01  1.39118e+01
3
# CELL(abcABC): 1322.94304  1322.94304  1322.94304    90.00000    90.00000    90.00000  Step:        8800  Bead:       8 positions{angstrom}  cell{angstrom}
       E -1.33415e+01  5.78078e+01  2.16279e+01
       E  1.27445e+01  2.78503e+00 -9.50401e+00
       E  3.34968e+01 -3.70215e+01  6.71140e+01
3
# CELL(abcABC): 1322.94304  1322.94304  1322.94304    90.00000    90.00000    90.00000  Step:        8900  Bead:       8 positions{angstrom}  cell{angstrom}
       E  2.02302e+01 -9.22398e+00  1.36130e+01
       E -4.33641e+00 -5.34259e+01  3.66610e+01
       E  3.58622e+01 -5.92086e+01  5.74441e+01
3
# CELL(abcABC): 1322.94304  1322.94304  1322.94304    90.00000    90.00000    90.00000  Step:        9000  Bead:       8 positions{angstrom}  cell{angstrom}
       E -1.43158e+00  8.15316e+00  2.93523e+01
       E -1.15621e+01 -2.06180e+01  5.66997e+01
       E  3.18355e+01 -4.21673e+01  3.29576e+00
3
# CELL(abcABC): 1322.94304  1322.94304  1322.94304    90.00000    90.00000    90.00000  Step:        9100  Bead:       8 positions{angstrom}  cell{angstrom}
       E -8.27658e+00  5.54105e+01  1.10713e+01
       E -3.70389e+01 -9.46755e+00  5.89569e+01
       E  1.41475e+01 -4.94664e+01  2.34433e+01
3
# CELL(abcABC): 1322.94304  1322.94304  1322.94304    90.00000    90.00000    90.00000  Step:        9200  Bead:       8 positions{angstrom}  cell{angstrom}
       E  2.06172e+01  3.50966e+01  8.83299e+00
       E  9.99581e+00  3.43611e-01  2.42526e+01
       E  1.83150e+01 -3.92780e+01  3.16671e+01
3
# CELL(abcABC): 1322.94304  1322.94304  1322.94304    90.00000    90.00000    90.00000  Step:        9300  Bead:       8 positions{angstrom}  cell{angstrom}
       E  1.00503e+01  4.18972e+01 -8.05550e+00
       E  7.97455e+00 -2.61358e+01  2.14065e+01
       E  1.46718e+01 -5.02047e+01 -2.69037e+00
3
# CELL(abcABC): 1322.94304  1322.94304  1322.94304    90.00000    90.00000    90.00000  Step:        9400  Bead:       8 positions{angstrom}  cell{angstrom}
       E  3.30428e+01  2.85513e+01 -5.62261e+01
       E -1.42299e+01 -5.25087e+01  1.49557e+01
       E  4.91730e+01 -3.83335e+01  1.18436e+01
3
# CELL(abcABC): 1322.94304  1322.94304  1322.94304    90.00000    90.00000    90.00000  Step:        9500  Bead:       8 positions{angstrom}  cell{angstrom}
       E  1.23887e+01  2.97469e+01 -4.78101e+01
       E -1.00599e+00 -5.45188e+01  1.95949e+01
       E  2.71336e+01 -2.34219e+01  2.04905e+00
3
# CELL(abcABC): 1322.94304  1322.94304  1322.94304    90.00000    90.00000    90.00000  Step:        9600  Bead:       8 positions{angstrom}  cell{angstrom}
       E  1.81314e+00  1.12561e+01 -3.48578e+01
       E  5.44894e+01 -4.24357e+01  3.87611e+01
       E  4.00733e+00 -1.18524e+01  1.78419e+01
3
# CELL(abcABC): 1322.94304  1322.94304  1322.94304    90.00000    90.00000    90.00000  Step:        9700  Bead:       8 positions{angstrom}  cell{angstrom}
       E  4.46599e+00 -2.37194e+01 -7.23389e+01
       E  6.41803e+01 -7.28499e+01  1.32442e+01
       E  1.68531e+01 -5.35134e+01 -3.35984e-01
3
# CELL(abcABC): 1322.94304  1322.94304  1322.94304    90.00000    90.00000    90.00000  Step:        9800  Bead:       8 positions{angstrom}  cell{angstrom}
       E -3.65699e+01 -6.04533e+01 -8.96674e+01
       E  4.98559e+01 -6.49560e+01 -1.28967e+01
       E  3.74681e+00 -1.38151e+01  1.34243e+01
3