3
# CELL(abcABC): 1322.94304  1322.94304  1322.94304    90.00000    90.00000    90.00000  Step:           0  Bead:       1 positions{angstrom}  cell{angstrom}
       E  0.00000e+00  0.00000e+00  0.00000e+00
       E  0.00000e+00  0.00000e+00  0.00000e+00
       E  0.00000e+00  0.00000e+00  0.00000e+00
3
# CELL(abcABC): 1322.94304  1322.94304  1322.94304    90.00000    90.00000    90.00000  Step:         100  Bead:       1 positions{angstrom}  cell{angstrom}
       E -3.09865e+01 -3.29112e+01 -4.74188e+00
       E -7.93324e+00 -1.52287e+01 -3.19603e+00
       E  7.96559e+00 -8.17043e+00  2.35946e+01
3
# CELL(abcABC): 1322.94304  1322.94304  1322.94304    90.00000    90.00000    90.00000  Step:         200  Bead:       1 positions{angstrom}  cell{angstrom}
       E -3.67206e+01 -2.89044e+01  4.26611e+00
       E  2.49292e+01  1.47906e+01  5.28832e+00
       E -6.74950e-01  3.35044e+01  4.93280e+01
3
# CELL(abcABC): 1322.94304  1322.94304  1322.94304    90.00000    90.00000    90.00000  Step:         300  Bead:       1 positions{angstrom}  cell{angstrom}
       E  1.46592e+01  4.38936e+00 -7.19512e+01
       E  2.72218e+01 -1.10315e+01  1.24485e+01
       E  1.24858e+01  4.05927e+01  2.40679e+01
3
# CELL(abcABC): 1322.94304  1322.94304  1322.94304    90.00000    90.00000    90.00000  Step:         400  Bead:       1 positions{angstrom}  cell{angstrom}
       E  1.74506e+01  1.41660e+01 -2.21877e+01
       E  3.26666e+01 -5.96707e+00  1.83196e+01
       E -9.50299e+00  4.05368e+01  2.58306e+01
3
# CELL(abcABC): 1322.94304  1322.94304  1322.94304    90.00000    90.00000    90.00000  Step:         500  Bead:       1 positions{angstrom}  cell{angstrom}
       E  2.48571e+01 -7.82917e+00 -2.28960e+01
       E  3.29629e+01  3.39383e+01  2.91981e+01
       E -1.80288e+01  3.30966e+01  2.51822e+01
3
# CELL(abcABC): 1322.94304  1322.94304  1322.94304    90.00000    90.00000    90.00000  Step:         600  Bead:       1 positions{angstrom}  cell{angstrom}
       E -8.74951e+00  6.51902e+00 -3.19685e+01
       E -2.58384e+01  2.57897e+00  2.97096e+01
       E -1.67208e+01  9.36165e+00  4.19409e+01
3
# CELL(abcABC): 1322.94304  1322.94304  1322.94304    90.00000    90.00000    90.00000  Step:         700  Bead:       1 positions{angstrom}  cell{angstrom}
       E  7.73343e+00  8.22772e-01 -1.32631e-01
       E -3.66194e+01 -3.02647e+01  3.31856e+01
       E -9.90494e+00  2.09138e+01  2.48868e+01
3
# CELL(abcABC): 1322.94304  1322.94304  1322.94304    90.00000    90.00000    90.00000  Step:         800  Bead:       1 positions{angstrom}  cell{angstrom}
       E  2.92752e+01  2.57987e+01  2.63251e+01
       E  8.00588e+00  2.62327e-01  2.37530e+01
       E -4.04992e+01  4.39080e+01  2.50015e+01
3
# CELL(abcABC): 1322.94304  1322.94304  1322.94304    90.00000    90.00000    90.00000  Step:         900  Bead:       1 positions{angstrom}  cell{angstrom}
       E  1.77034e+01  8.96465e+00  1.15060e+01
       E  4.65986e+01  4.13693e+00  2.01435e+01
       E -4.67261e+01  3.08947e+01  5.68308e+01
3
# CELL(abcABC): 1322.94304  1322.94304  1322.94304    90.00000    90.00000    90.00000  Step:        1000  Bead:       1 positions{angstrom}  cell{angstrom}
       E  6.98592e+00 -2.47255e+01 -8.14646e+00
       E -1.34781e+00  1.41916e+01 -3.70237e+01
       E -2.53316e+01  1.26591e+01  6.99401e+01
3
# CELL(abcABC): 1322.94304  1322.94304  1322.94304    90.00000    90.00000    90.00000  Step:        1100  Bead:       1 positions{angstrom}  cell{angstrom}
       E  1.52894e+01  4.05764e+01 -2.52290e+01
       E  3.92514e+01  8.48604e+00 -4.00517e+01
       E -3.84138e+01  1.32573e+01  7.25006e+01
3
# CELL(abcABC): 1322.94304  1322.94304  1322.94304    90.00000    90.00000    90.00000  Step:        1200  Bead:       1 positions{angstrom}  cell{angstrom}
       E  6.15025e+00  3.43194e+01 -4.00070e+01
       E  1.79963e+01  4.54225e+00 -5.64274e+01
       E  1.24110e+01  2.30878e+01  1.90772e+01
3
# CELL(abcABC): 1322.94304  1322.94304  1322.94304    90.00000    90.00000    90.00000  Step:        1300  Bead:       1 positions{angstrom}  cell{angstrom}
       E -2.90319e+00  3.51714e+01 -4.74882e+01
       E  8.20101e+00 -6.61226e+01 -3.68233e+01
       E -3.88086e+00  2.10891e+01  1.03927e+01
3
# CELL(abcABC): 1322.94304  1322.94304  1322.94304    90.00000    90.00000    90.00000  Step:        1400  Bead:       1 positions{angstrom}  cell{angstrom}
       E -3.60878e+01  6.31916e+00 -3.92737e+01
       E -1.16138e+01 -1.82788e+01 -4.41300e+01
       E -3.62118e+01  4.56579e+01  2.42501e+01
3
# CELL(abcABC): 1322.94304  1322.94304  1322.94304    90.00000    90.00000    90.00000  Step:        1500  Bead:       1 positions{angstrom}  cell{angstrom}
       E -5.57554e+01  4.29470e+01 -6.89073e+01
       E -3.81328e+01 -5.34760e+01 -4.11125e+01
       E -1.21898e+00  3.95212e+01  3.50118e+01
3
# CELL(abcABC): 1322.94304  1322.94304  1322.94304    90.00000    90.00000    90.00000  Step:        1600  Bead:       1 positions{angstrom}  cell{angstrom}
       E -5.64441e+01  4.96519e+01 -4.07040e+01
       E -1.54658e+01 -3.92830e+01 -1.40137e+01
       E -6.89973e+00  6.29431e+01  2.56974e+01
3
# CELL(abcABC): 1322.94304  1322.94304  1322.94304    90.00000    90.00000    90.00000  Step:        1700  Bead:       1 positions{angstrom}  cell{angstrom}
       E -4.16214e+01  2.50051e+01 -1.56175e+01
       E -1.92180e+01 -9.57881e+00  7.46434e+00
       E -2.00093e+01  7.05411e+01 -2.22700e+00
3
# CELL(abcABC): 1322.94304  1322.94304  1322.94304    90.00000    90.00000    90.00000  Step:        1800  Bead:       1 positions{angstrom}  cell{angstrom}
       E -3.88735e+01  2.06485e+00  2.81048e+01
       E -5.59485e+01 -2.31611e+01  1.29774e+01
       E -3.32236e+01  5.06917e+01  1.22836e+01
3
# CELL(abcABC): 1322.94304  1322.94304  1322.94304    90.00000    90.00000    90.00000  Step:        1900  Bead:       1 positions{angstrom}  cell{angstrom}
       E -2.88538e+01  2.03658e+01 -2.27821e+00
       E -5.19062e+01 -6.35332e+00 -2.96851e+01
       E -7.25298e+01  4.54244e+01  3.63183e+01
3
# CELL(abcABC): 1322.94304  1322.94304  1322.94304    90.00000    90.00000    90.00000  Step:        2000  Bead:       1 positions{angstrom}  cell{angstrom}
       E -3.55116e+01  1.42079e+01  1.26187e+01
       E  1.02369e+01 -2.76308e+01  2.71333e+01
       E -5.70505e+01  2.60333e+01  3.14437e+01
3
# CELL(abcABC): 1322.94304  1322.94304  1322.94304    90.00000    90.00000    90.00000  Step:        2100  Bead:       1 positions{angstrom}  cell{angstrom}
       E -1.50800e+01  1.47338e+00 -9.60598e+00
       E -4.86166e+01 -1.22122e+01 -4.98870e-01
       E -5.87046e+01  7.44883e+00  3.28725e+01
3
# CELL(abcABC): 1322.94304  1322.94304  1322.94304    90.00000    90.00000    90.00000  Step:        2200  Bead:       1 positions{angstrom}  cell{angstrom}
       E -4.62773e+00 -1.41350e+00 -8.65095e+00
       E -6.10746e+01 -2.19731e+01  4.43575e+00
       E -6.46659e+01 -4.00710e+01  3.78024e+01
3
# CELL(abcABC): 1322.94304  1322.94304  1322.94304    90.00000    90.00000    90.00000  Step:        2300  Bead:       1 positions{angstrom}  cell{angstrom}
       E  2.17880e+01 -1.05697e+01 -4.10030e+00
       E -3.15230e+01 -2.18998e+01  3.21084e-01
       E -3.56993e+01  1.78773e+01  1.66036e+01
3
# CELL(abcABC): 1322.94304  1322.94304  1322.94304    90.00000    90.00000    90.00000  Step:        2400  Bead:       1 positions{angstrom}  cell{angstrom}
       E  2.10024e+01 -2.14367e+01  2.34536e+01
       E -6.55630e-01 -4.81505e+01 -2.12214e+01
       E -1.45772e+01  2.13862e+01  4.68498e+01
3
# CELL(abcABC): 1322.94304  1322.94304  1322.94304    90.00000    90.00000    90.00000  Step:        2500  Bead:       1 positions{angstrom}  cell{angstrom}
       E  8.07941e-01 -3.10017e+00  4.22386e+01
       E  7.58366e+00 -2.54603e+01 -1.92234e+01
       E -5.79116e+01 -3.09911e+01  7.19527e+01
3
# CELL(abcABC): 1322.94304  1322.94304  1322.94304    90.00000    90.00000    90.00000  Step:        2600  Bead:       1 positions{angstrom}  cell{angstrom}
       E  3.67117e+01  1.93911e+01  7.29403e+01
       E -1.76669e+01 -5.86795e+01 -2.54887e+01
       E -3.17416e+01 -5.18413e+01  8.64512e+01
3
# CELL(abcABC): 1322.94304  1322.94304  1322.94304    90.00000    90.00000    90.00000  Step:        2700  Bead:       1 positions{angstrom}  cell{angstrom}
       E  1.55084e+01 -1.11829e+01  6.18479e+01
       E -4.37866e+01 -4.87438e+01 -6.43439e+00
       E -2.73816e+01 -2.29516e+01  7.34872e+01
3
# CELL(abcABC): 1322.94304  1322.94304  1322.94304    90.00000    90.00000    90.00000  Step:        2800  Bead:       1 positions{angstrom}  cell{angstrom}
       E  1.75296e+01 -2.96845e+01  3.31346e+01
       E -4.04083e+01 -3.38975e+01 -1.57392e+01
       E -2.60479e+01 -2.26216e+01  7.68757e+01
3
# CELL(abcABC): 1322.94304  1322.94304  1322.94304    90.00000    90.00000    90.00000  Step:        2900  Bead:       1 positions{angstrom}  cell{angstrom}
       E -1.23208e+01 -5.38048e+01  3.69367e+01
       E -3.10198e+01 -4.61968e+01  1.75021e+01
       E -2.84598e+01 -4.16291e+01  8.63871e+01
3
# CELL(abcABC): 1322.94304  1322.94304  1322.94304    90.00000    90.00000    90.00000  Step:        3000  Bead:       1 positions{angstrom}  cell{angstrom}
       E -5.31290e+00  1.16103e+01  3.96638e+00
       E -2.65311e+01 -4.97800e+01  9.03204e+00
       E -2.24200e+01 -1.80959e+01  5.69612e+01
3
# CELL(abcABC): 1322.94304  1322.94304  1322.94304    90.00000    90.00000    90.00000  Step:        3100  Bead:       1 positions{angstrom}  cell{angstrom}
       E -8.36528e+00  6.32250e+00  3.60667e+01
       E -9.71826e+00 -8.10052e+01  3.59678e+01
       E -4.57540e+01 -1.34704e+01  1.70553e+01
3
# CELL(abcABC): 1322.94304  1322.94304  1322.94304    90.00000    90.00000    90.00000  Step:        3200  Bead:       1 positions{angstrom}  cell{angstrom}
       E  8.42562e+00  2.49105e+01  1.89111e+01
       E -6.22689e+01 -8.33398e+01  4.33072e+01
       E -5.84366e+00 -3.95677e+01  8.05568e+01
3
# CELL(abcABC): 1322.94304  1322.94304  1322.94304    90.00000    90.00000    90.00000  Step:        3300  Bead:       1 positions{angstrom}  cell{angstrom}
       E  8.55305e+00  5.98254e+01  6.06203e+01
       E -9.01586e+01 -4.40033e+01  3.65197e+01
       E -5.18399e+01  7.20138e+00  8.69726e+01
3
# CELL(abcABC): 1322.94304  1322.94304  1322.94304    90.00000    90.00000    90.00000  Step:        3400  Bead:       1 positions{angstrom}  cell{angstrom}
       E -1.67062e+01  3.86805e+01  4.11718e+01
       E -6.50778e+01 -4.34310e+01  5.19140e+01
       E -3.93439e+01 -5.13424e+00  8.03264e+01
3
# CELL(abcABC): 1322.94304  1322.94304  1322.94304    90.00000    90.00000    90.00000  Step:        3500  Bead:       1 positions{angstrom}  cell{angstrom}
       E -1.31030e+01  3.63368e+01  2.32038e+01
       E -6.80483e+01 -5.39578e+01  3.93990e+01
       E -7.54127e+01  3.13380e+00  4.04208e+01
3
# CELL(abcABC): 1322.94304  1322.94304  1322.94304    90.00000    90.00000    90.00000  Step:        3600  Bead:       1 positions{angstrom}  cell{angstrom}
       E -5.13642e+01  2.42963e+00  6.44830e+00
       E -5.38116e+01 -5.09294e+01  3.40411e+01
       E -8.34840e+01 -6.10428e+01  1.31788e+01
3
# CELL(abcABC): 1322.94304  1322.94304  1322.94304    90.00000    90.00000    90.00000  Step:        3700  Bead:       1 positions{angstrom}  cell{angstrom}
       E -4.27668e+01 -4.95849e+00 -2.60969e+01
       E -1.06910e+01 -2.05106e+01  1.50815e+01
       E -5.14461e+01 -3.54056e+01  1.15011e+01
3
# CELL(abcABC): 1322.94304  1322.94304  1322.94304    90.00000    90.00000    90.00000  Step:        3800  Bead:       1 positions{angstrom}  cell{angstrom}
       E -3.22022e+01 -1.89730e+01  8.76209e+00
       E -1.51152e+01 -1.58922e+01 -3.86915e+01
       E -5.56592e+01 -4.16603e+01  2.08837e+01
3
# CELL(abcABC): 1322.94304  1322.94304  1322.94304    90.00000    90.00000    90.00000  Step:        3900  Bead:       1 positions{angstrom}  cell{angstrom}
       E -2.58674e+01 -1.34469e+01 -8.14249e+00
       E -2.56307e+01 -2.50837e+01 -2.65490e+01
       E -6.48090e+01 -2.69174e+01  2.33432e+01
3
# CELL(abcABC): 1322.94304  1322.94304  1322.94304    90.00000    90.00000    90.00000  Step:        4000  Bead:       1 positions{angstrom}  cell{angstrom}
       E -4.14333e+01  1.73707e+01  1.31002e+01
       E -3.04600e+01 -9.42795e+00 -2.80736e+01
       E -8.21916e+01 -3.22849e+01  3.18508e+00
3
# CELL(abcABC): 1322.94304  1322.94304  1322.94304    90.00000    90.00000    90.00000  Step:        4100  Bead:       1 positions{angstrom}  cell{angstrom}
       E -5.42441e+01  5.59163e+01 -4.68181e+01
       E -2.08002e+01  2.97602e+01  1.33488e+01
       E -7.84100e+01  1.94620e+01 -2.00081e+01
3
# CELL(abcABC): 1322.94304  1322.94304  1322.94304    90.00000    90.00000    90.00000  Step:        4200  Bead:       1 positions{angstrom}  cell{angstrom}
       E -3.35661e+01  3.50393e+00 -4.42417e+01
       E -2.98490e+01  5.49471e+01  2.94299e+01
       E -7.41152e+01 -3.78498e+01  4.91281e+00
3
# CELL(abcABC): 1322.94304  1322.94304  1322.94304    90.00000    90.00000    90.00000  Step:        4300  Bead:       1 positions{angstrom}  cell{angstrom}
       E -5.26105e+01 -5.93754e-01 -8.28249e+01
       E -5.43882e+01  4.85377e+01  1.15365e+00
       E -5.84875e+01 -2.65497e+01  2.29399e+01
3
# CELL(abcABC): 1322.94304  1322.94304  1322.94304    90.00000    90.00000    90.00000  Step:        4400  Bead:       1 positions{angstrom}  cell{angstrom}
       E -4.56044e+01  4.02568e+01 -7.36217e+01
       E -6.13523e+01  7.28645e+01  5.36718e+01
       E -3.76977e+01 -2.22280e+01  4.34707e+01
3
# CELL(abcABC): 1322.94304  1322.94304  1322.94304    90.00000    90.00000    90.00000  Step:        4500  Bead:       1 positions{angstrom}  cell{angstrom}
       E -3.90755e+01  3.41044e+01 -4.24529e+01
       E -8.06736e+01  7.20206e+01  4.06957e+01
       E -3.23554e+01 -1.12012e+01  9.75050e+00
3
# CELL(abcABC): 1322.94304  1322.94304  1322.94304    90.00000    90.00000    90.00000  Step:        4600  Bead:       1 positions{angstrom}  cell{angstrom}
       E -4.72097e+01  3.39917e+01  2.09349e+00
       E -5.10338e+01  5.40260e+01  2.38016e+01
       E -2.31743e+01 -2.56741e+01  2.25599e+01
3
# CELL(abcABC): 1322.94304  1322.94304  1322.94304    90.00000    90.00000    90.00000  Step:        4700  Bead:       1 positions{angstrom}  cell{angstrom}
       E -1.36181e+01  2.35373e+01 -4.17098e+01
       E -6.12910e+01  2.49417e+01 -1.76005e+01
       E -2.30565e+01  6.34966e-01  2.60645e+01
3
# CELL(abcABC): 1322.94304  1322.94304  1322.94304    90.00000    90.00000    90.00000  Step:        4800  Bead:       1 positions{angstrom}  cell{angstrom}
       E  2.44108e+01  3.11699e+01 -2.88292e+01
       E -6.49330e+01 -3.60716e+01 -4.23288e+01
       E  7.77735e+00 -1.95357e+00 -6.72385e+00
3
# CELL(abcABC): 1322.94304  1322.94304  1322.94304    90.00000    90.00000    90.00000  Step:        4900  Bead:       1 positions{angstrom}  cell{angstrom}
       E  5.89523e+01  3.52714e+01 -4.69690e+01
       E -8.61097e+01 -3.70458e+01  3.64687e+00
       E  2.56971e+01  1.18895e+01 -8.32677e+01
3
# CELL(abcABC): 1322.94304  1322.94304  1322.94304    90.00000    90.00000    90.00000  Step:        5000  Bead:       1 positions{angstrom}  cell{angstrom}
       E  6.98724e+01  2.89873e+01 -2.01245e+01
       E -7.76469e+01 -4.39232e+01 -3.53805e+01
       E  1.13701e+01  2.11927e+00 -3.78819e+01
3
# CELL(abcABC): 1322.94304  1322.94304  1322.94304    90.00000    90.00000    90.00000  Step:        5100  Bead:       1 positions{angstrom}  cell{angstrom}
       E  7.68795e+01  6.05002e+01  3.02417e+01
       E -7.93443e+01 -4.15439e+01 -1.89526e+01
       E  4.37590e+01  7.64299e+00 -1.36991e+01
3
# CELL(abcABC): 1322.94304  1322.94304  1322.94304    90.00000    90.00000    90.00000  Step:        5200  Bead:       1 positions{angstrom}  cell{angstrom}
       E  3.49474e+01  4.36662e+01  9.11591e+00
       E -4.98006e+01  1.95418e+00 -1.60902e+01
       E  2.17468e+01  5.33657e+00 -3.75667e+01
3
# CELL(abcABC): 1322.94304  1322.94304  1322.94304    90.00000    90.00000    90.00000  Step:        5300  Bead:       1 positions{angstrom}  cell{angstrom}
       E  7.52139e+00  3.12895e+01  4.12219e+00
       E -5.84353e+01  3.20569e+01 -5.33777e+00
       E  1.35229e+01  1.75752e+01 -8.33143e+00
3
# CELL(abcABC): 1322.94304  1322.94304  1322.94304    90.00000    90.00000    90.00000  Step:        5400  Bead:       1 positions{angstrom}  cell{angstrom}
       E -6.48819e+00  2.86805e+01  3.94682e+01
       E -5.18343e+01 -5.58019e+00 -5.10248e+01
       E  1.35134e+01  2.69408e+00 -1.79641e+00
3
# CELL(abcABC): 1322.94304  1322.94304  1322.94304    90.00000    90.00000    90.00000  Step:        5500  Bead:       1 positions{angstrom}  cell{angstrom}
       E  1.83901e+01  1.47939e+01  1.37725e+01
       E -3.48421e+01  1.42817e+01 -1.06696e+01
       E -1.52865e+01  3.70869e+01  1.70666e+01
3
# CELL(abcABC): 1322.94304  1322.94304  1322.94304    90.00000    90.00000    90.00000  Step:        5600  Bead:       1 positions{angstrom}  cell{angstrom}
       E  8.10050e+00  1.16578e+01  9.09389e+00
       E -2.51492e+01  9.99602e+00 -1.28722e+01
       E  5.73731e+00  4.02065e+01  1.83806e+00
3
# CELL(abcABC): 1322.94304  1322.94304  1322.94304    90.00000    90.00000    90.00000  Step:        5700  Bead:       1 positions{angstrom}  cell{angstrom}
       E -2.65677e+01  8.68157e+00  1.43746e+01
       E -3.26012e+01  2.67520e+01 -1.88963e+01
       E -4.94454e+01 -1.40961e+01  3.29643e+01
3
# CELL(abcABC): 1322.94304  1322.94304  1322.94304    90.00000    90.00000    90.00000  Step:        5800  Bead:       1 positions{angstrom}  cell{angstrom}
       E -2.13386e+01  2.15403e+01 -6.14180e+00
       E -2.43084e+01  4.06213e+01  1.96684e+01
       E -1.69579e+01 -3.06212e+01  2.50013e+00
3
# CELL(abcABC): 1322.94304  1322.94304  1322.94304    90.00000    90.00000    90.00000  Step:        5900  Bead:       1 positions{angstrom}  cell{angstrom}
       E -2.87737e+00  6.74003e+00 -4.16153e+00
       E -3.40834e+01  1.51584e+01 -1.39792e+01
       E  9.48237e+00 -2.51699e+01 -1.93594e+01
3
# CELL(abcABC): 1322.94304  1322.94304  1322.94304    90.00000    90.00000    90.00000  Step:        6000  Bead:       1 positions{angstrom}  cell{angstrom}
       E  1.71538e+00 -9.61945e+00 -3.31080e+01
       E -1.10871e+00 -3.56181e+00 -2.45181e+01
       E  2.37669e+01 -4.68454e+01 -4.53404e+01
3
# CELL(abcABC): 1322.94304  1322.94304  1322.94304    90.00000    90.00000    90.00000  Step:        6100  Bead:       1 positions{angstrom}  cell{angstrom}
       E  3.41474e+01 -1.87782e+01 -5.13015e+01
       E  1.44092e+01 -3.39765e+01 -2.24868e+01
       E -2.53746e+00 -3.32489e+01  1.23423e+00
3
# CELL(abcABC): 1322.94304  1322.94304  1322.94304    90.00000    90.00000    90.00000  Step:        6200  Bead:       1 positions{angstrom}  cell{angstrom}
       E  4.18985e+01 -2.72804e+01 -8.73979e+01
       E  4.64378e+01 -2.27942e+01 -1.74731e+01
       E  2.54498e+00 -2.80298e+01 -1.52186e+01
3
# CELL(abcABC): 1322.94304  1322.94304  1322.94304    90.00000    90.00000    90.00000  Step:        6300  Bead:       1 positions{angstrom}  cell{angstrom}
       E  2.47450e+01 -6.73780e+01 -9.62463e+01
       E  7.49045e+01 -2.60252e+01 -1.42810e+01
       E  1.14677e+01 -3.73507e+01 -2.94077e+00
3
# CELL(abcABC): 1322.94304  1322.94304  1322.94304    90.00000    90.00000    90.00000  Step:        6400  Bead:       1 positions{angstrom}  cell{angstrom}
       E  2.09905e+01 -8.28436e+01 -1.01450e+02
       E  7.59954e+01 -3.99424e+01 -5.77392e+00
       E  4.00258e+00 -2.25900e+01  2.78726e+01
3
# CELL(abcABC): 1322.94304  1322.94304  1322.94304    90.00000    90.00000    90.00000  Step:        6500  Bead:       1 positions{angstrom}  cell{angstrom}
       E -2.42628e+00 -1.02715e+02 -1.05653e+02
       E  2.81925e+01  7.91133e+00 -5.97265e+01
       E -1.54902e+01 -2.78505e+01 -4.97741e+00
3
# CELL(abcABC): 1322.94304  1322.94304  1322.94304    90.00000    90.00000    90.00000  Step:        6600  Bead:       1 positions{angstrom}  cell{angstrom}
       E  1.27031e+00 -8.66211e+01 -1.20116e+02
       E  2.60985e+01 -8.04416e+00 -2.54616e+01
       E -2.98814e+01 -3.57129e+01  3.59811e+01
3
# CELL(abcABC): 1322.94304  1322.94304  1322.94304    90.00000    90.00000    90.00000  Step:        6700  Bead:       1 positions{angstrom}  cell{angstrom}
       E  2.39532e+01 -7.06970e+01 -1.14758e+02
       E  4.45698e+01 -2.00028e+01 -3.38422e+01
       E -1.63384e+01  5.34689e+00  4.79222e+01
3
# CELL(abcABC): 1322.94304  1322.94304  1322.94304    90.00000    90.00000    90.00000  Step:        6800  Bead:       1 positions{angstrom}  cell{angstrom}
       E -1.86291e+01 -7.86210e+01 -9.54155e+01
       E  3.43852e+01 -1.67552e+01 -1.57752e+01
       E  1.70853e+01  7.95454e+00  6.70400e+01
3
# CELL(abcABC): 1322.94304  1322.94304  1322.94304    90.00000    90.00000    90.00000  Step:        6900  Bead:       1 positions{angstrom}  cell{angstrom}
       E -1.59108e+01 -7.81659e+01 -7.10480e+01
       E -7.10385e+00 -2.89382e+00  1.36633e-01
       E  1.05158e+01 -1.25881e+01  4.50749e+01
3
# CELL(abcABC): 1322.94304  1322.94304  1322.94304    90.00000    90.00000    90.00000  Step:        7000  Bead:       1 positions{angstrom}  cell{angstrom}
       E -1.39155e+01 -3.15255e+01 -4.26899e+01
       E -2.22712e+01  1.13779e+01 -3.89135e+01
       E  2.84546e-01  2.01041e+01  4.04606e+01
3
# CELL(abcABC): 1322.94304  1322.94304  1322.94304    90.00000    90.00000    90.00000  Step:        7100  Bead:       1 positions{angstrom}  cell{angstrom}
       E -2.44102e+01 -2.06957e+01 -3.27364e+01
       E -2.58313e+01  6.08621e+01  1.82003e+01
       E  3.33390e+01  1.86219e+01  4.09113e+00
3
# CELL(abcABC): 1322.94304  1322.94304  1322.94304    90.00000    90.00000    90.00000  Step:        7200  Bead:       1 positions{angstrom}  cell{angstrom}
       E -4.24772e+01 -1.79865e+01 -6.07879e+01
       E -4.69163e+01  3.60200e+01  4.17682e+01
       E  3.40446e+01  4.87300e+01  5.42516e-01
3
# CELL(abcABC): 1322.94304  1322.94304  1322.94304    90.00000    90.00000    90.00000  Step:        7300  Bead:       1 positions{angstrom}  cell{angstrom}
       E -2.99159e+00 -2.52939e+01 -4.84511e+01
       E -3.15964e+01  5.09718e+01  3.72936e+01
       E  3.43051e+01  3.84485e+01 -3.14408e+01
3
# CELL(abcABC): 1322.94304  1322.94304  1322.94304    90.00000    90.00000    90.00000  Step:        7400  Bead:       1 positions{angstrom}  cell{angstrom}
       E  2.59802e+01 -6.45018e+00 -8.41906e+00
       E -2.06081e+01  2.38362e+01  4.84782e+01
       E  4.69544e+01  4.14241e+01 -4.79030e+01
3
# CELL(abcABC): 1322.94304  1322.94304  1322.94304    90.00000    90.00000    90.00000  Step:        7500  Bead:       1 positions{angstrom}  cell{angstrom}
       E -6.21070e+00 -5.03858e+01 -3.20767e+01
       E -4.32081e+01 -1.81322e+00  1.58198e+01
       E  6.74216e+01  6.42605e+01 -3.45502e+01
3
# CELL(abcABC): 1322.94304  1322.94304  1322.94304    90.00000    90.00000    90.00000  Step:        7600  Bead:       1 positions{angstrom}  cell{angstrom}
       E -2.08297e+01 -6.57919e+01 -2.88491e+01
       E -1.63859e+01 -3.95165e+01 -1.32020e+01
       E  6.57740e+01  5.91406e+01 -1.35345e+01
3
# CELL(abcABC): 1322.94304  1322.94304  1322.94304    90.00000    90.00000    90.00000  Step:        7700  Bead:       1 positions{angstrom}  cell{angstrom}
       E -1.68555e+01 -7.40034e+01 -3.61970e+01
       E -3.16040e+00 -5.43335e+01 -8.85752e-01
       E  4.89483e+01  7.38890e+00  7.50596e+00
3
# CELL(abcABC): 1322.94304  1322.94304  1322.94304    90.00000    90.00000    90.00000  Step:        7800  Bead:       1 positions{angstrom}  cell{angstrom}
       E  1.02983e+01 -3.22624e+01 -5.36977e+01
       E  3.04866e+01 -6.19262e+01 -4.07540e+01
       E  4.48478e+01 -1.15942e+01 -6.34943e+01
3
# CELL(abcABC): 1322.94304  1322.94304  1322.94304    90.00000    90.00000    90.00000  Step:        7900  Bead:       1 positions{angstrom}  cell{angstrom}
       E  1.31690e+00  6.04035e+00 -2.52962e+01
       E  4.33078e+01 -2.17429e+01 -4.79706e+01
       E  8.20615e+01  8.04534e+00 -3.55705e+01
3
# CELL(abcABC): 1322.94304  1322.94304  1322.94304    90.00000    90.00000    90.00000  Step:        8000  Bead:       1 positions{angstrom}  cell{angstrom}
       E  2.87579e+01  2.43854e+01 -1.38412e+01
       E  2.48710e+01 -3.53682e+01 -6.89989e+01
       E  4.69372e+01  1.53282e+01 -3.07583e+01
3
# CELL(abcABC): 1322.94304  1322.94304  1322.94304    90.00000    90.00000    90.00000  Step:        8100  Bead:       1 positions{angstrom}  cell{angstrom}
       E  3.29943e+01  3.98362e+01 -5.59747e+00
       E -5.44932e+00 -1.71671e+00 -2.13100e+01
       E -5.74632e+00 -2.61485e+01 -9.77716e+00
3
# CELL(abcABC): 1322.94304  1322.94304  1322.94304    90.00000    90.00000    90.00000  Step:        8200  Bead:       1 positions{angstrom}  cell{angstrom}
       E  1.44539e+01  1.43889e+01 -1.32321e+01
       E -5.80521e+00  3.18893e+01 -2.71057e+01
       E  2.53453e+01 -4.28130e+01  5.71834e-01
3
# CELL(abcABC): 1322.94304  1322.94304  1322.94304    90.00000    90.00000    90.00000  Step:        8300  Bead:       1 positions{angstrom}  cell{angstrom}
       E  3.24689e+01  2.59825e+01 -8.21099e+00
       E  3.80012e+01 -9.02067e+00  3.24159e+01
       E  2.21379e+01 -1.86545e+01  1.63230e+01
3
# CELL(abcABC): 1322.94304  1322.94304  1322.94304    90.00000    90.00000    90.00000  Step:        8400  Bead:       1 positions{angstrom}  cell{angstrom}
       E  3.23623e+01 -1.52185e+01  6.47202e+00
       E  1.81794e+01  2.76463e+01  3.57631e+01
       E  3.53841e+01 -1.60294e+01  3.08078e+01
3
# CELL(abcABC): 1322.94304  1322.94304  1322.94304    90.00000    90.00000    90.00000  Step:        8500  Bead:       1 positions{angstrom}  cell{angstrom}
       E  9.89516e-01 -2.07491e+00 -1.80755e+01
       E  3.37169e+01  2.66907e+01  2.02000e+01
       E  4.56020e+01  7.91674e+00  2.64799e+01
3
# CELL(abcABC): 1322.94304  1322.94304  1322.94304    90.00000    90.00000    90.00000  Step:        8600  Bead:       1 positions{angstrom}  cell{angstrom}
       E -8.66926e+00 -8.71401e+00 -4.12756e+00
       E  3.81940e+01 -1.48187e+01 -3.13436e+00
       E  5.57653e+01  5.66939e+00  4.39352e+01
3
# CELL(abcABC): 1322.94304  1322.94304  1322.94304    90.00000    90.00000    90.00000  Step:        8700  Bead:       1 positions{angstrom}  cell{angstrom}
       E -2.85762e+01  3.11699e+01 -2.44126e+01
       E  2.99118e+01 -2.13018e+01 -2.22787e+01
       E  4.82835e+01 -4.33859e+01  3.05159e+01
3
# CELL(abcABC): 1322.94304  1322.94304  1322.94304    90.00000    90.00000    90.00000  Step:        8800  Bead:       1 positions{angstrom}  cell{angstrom}
       E -1.25137e+01  3.81861e+01 -1.85931e+01
       E -8.88901e+00 -4.02146e+01  1.15366e+01
       E  7.06013e+01 -6.53378e+01  5.38666e+01
3
# CELL(abcABC): 1322.94304  1322.94304  1322.94304    90.00000    90.00000    90.00000  Step:        8900  Bead:       1 positions{angstrom}  cell{angstrom}
       E -1.72512e+01  3.39659e+01 -1.46391e+01
       E -2.46630e+01 -3.54273e+01  3.25212e+01
       E  2.02112e+01 -6.56930e+01  3.14402e+01
3
# CELL(abcABC): 1322.94304  1322.94304  1322.94304    90.00000    90.00000    90.00000  Step:        9000  Bead:       1 positions{angstrom}  cell{angstrom}
       E -1.32693e+01  5.50237e+01  1.81360e+01
       E -3.88904e+01 -3.49191e+01  1.77359e+01
       E  1.35047e+01 -6.26735e+01 -1.72707e+00
3
# CELL(abcABC): 1322.94304  1322.94304  1322.94304    90.00000    90.00000    90.00000  Step:        9100  Bead:       1 positions{angstrom}  cell{angstrom}
       E  1.90550e+01  4.64629e+01  2.78561e+01
       E -5.97893e+01  1.30602e+00  2.03163e+01
       E -2.57643e+00 -4.57904e+01 -4.52093e+00
3
# CELL(abcABC): 1322.94304  1322.94304  1322.94304    90.00000    90.00000    90.00000  Step:        9200  Bead:       1 positions{angstrom}  cell{angstrom}
       E  1.81293e+01  3.71474e+01 -8.26132e+00
       E -6.63873e+00 -2.40018e+01  5.16600e+01
       E  8.00971e+00 -4.57465e+01 -2.59207e+01
3
# CELL(abcABC): 1322.94304  1322.94304  1322.94304    90.00000    90.00000    90.00000  Step:        9300  Bead:       1 positions{angstrom}  cell{angstrom}
       E  4.84871e+01  6.11127e+01 -5.13114e+01
       E  8.56557e+00 -5.72050e+01  2.90727e+01
       E  5.47524e+01 -2.40356e+01  1.59643e+01
3
# CELL(abcABC): 1322.94304  1322.94304  1322.94304    90.00000    90.00000    90.00000  Step:        9400  Bead:       1 positions{angstrom}  cell{angstrom}
       E  3.50665e+01  3.30708e+01 -3.81852e+01
       E  2.04220e+01 -3.53230e+01  1.05131e+01
       E  1.70207e+01 -9.16235e+00  1.76263e+01
3
# CELL(abcABC): 1322.94304  1322.94304  1322.94304    90.00000    90.00000    90.00000  Step:        9500  Bead:       1 positions{angstrom}  cell{angstrom}
       E -5.44219e+00  2.75972e+01 -2.99117e+01
       E  4.09125e+01 -2.16368e+01  2.17377e+01
       E -1.64376e+01 -4.21446e+00  9.99219e+00
3
# CELL(abcABC): 1322.94304  1322.94304  1322.94304    90.00000    90.00000    90.00000  Step:        9600  Bead:       1 positions{angstrom}  cell{angstrom}
       E -1.49934e+01  7.22426e-01 -5.17067e+01
       E  2.01073e+01 -3.04462e+01  3.74534e+01
       E -2.13186e+01 -4.44857e+01 -6.68144e+00
3
# CELL(abcABC): 1322.94304  1322.94304  1322.94304    90.00000    90.00000    90.00000  Step:        9700  Bead:       1 positions{angstrom}  cell{angstrom}
       E -5.42405e+01 -1.64025e+01 -6.85814e+01
       E  4.75541e+01 -6.82664e+01  7.42339e+00
       E -2.68082e+01 -2.17682e+01 -2.23107e+00
3
# CELL(abcABC): 1322.94304  1322.94304  1322.94304    90.00000    90.00000    90.00000  Step:        9800  Bead:       1 positions{angstrom}  cell{angstrom}
       E -4.70620e+01 -6.80171e+01 -6.61628e+01
       E  5.33947e+01 -9.53981e+01 -1.41791e+01
       E  1.50031e+00 -2.66620e+01  4.17151e+01
3