3
# CELL(abcABC): 1322.94304  1322.94304  1322.94304    90.00000    90.00000    90.00000  Step:           0  Bead:       4 positions{angstrom}  cell{angstrom}
       E  0.00000e+00  0.00000e+00  0.00000e+00
       E  0.00000e+00  0.00000e+00  0.00000e+00
       E  0.00000e+00  0.00000e+00  0.00000e+00
3
# CELL(abcABC): 1322.94304  1322.94304  1322.94304    90.00000    90.00000    90.00000  Step:         100  Bead:       4 positions{angstrom}  cell{angstrom}
       E -2.28205e+01 -3.86854e+01 -1.63743e+01
       E  1.11643e+01 -8.27634e+00 -4.10633e+00
       E -1.92875e+01 -1.77302e+00  2.81644e+01
3
# CELL(abcABC): 1322.94304  1322.94304  1322.94304    90.00000    90.00000    90.00000  Step:         200  Bead:       4 positions{angstrom}  cell{angstrom}
       E -2.91800e+01 -2.62996e+01 -1.45524e+01
       E  1.41908e+01  8.33597e+00 -2.47735e+01
       E -1.04721e+01  1.42761e+01  3.88657e+01
3
# CELL(abcABC): 1322.94304  1322.94304  1322.94304    90.00000    90.00000    90.00000  Step:         300  Bead:       4 positions{angstrom}  cell{angstrom}
       E  3.13209e-02 -9.16045e+00 -5.75357e+01
       E  5.03676e+00  6.07615e+00 -1.92553e+01
       E -2.67672e+01 -4.55699e+00  4.64538e+01
3
# CELL(abcABC): 1322.94304  1322.94304  1322.94304    90.00000    90.00000    90.00000  Step:         400  Bead:       4 positions{angstrom}  cell{angstrom}
       E  2.36085e+01  2.19903e+01 -8.30213e+00
       E  1.72407e+01  6.35680e+00 -1.58838e-01
       E -1.25899e+01  1.99595e+01  5.69032e+01
3
# CELL(abcABC): 1322.94304  1322.94304  1322.94304    90.00000    90.00000    90.00000  Step:         500  Bead:       4 positions{angstrom}  cell{angstrom}
       E  7.66511e-01  2.81279e+00 -2.15090e+01
       E  2.03802e+01  9.42092e+00  2.03257e+01
       E -2.28080e+01  3.37188e+01  3.53313e-01
3
# CELL(abcABC): 1322.94304  1322.94304  1322.94304    90.00000    90.00000    90.00000  Step:         600  Bead:       4 positions{angstrom}  cell{angstrom}
       E -3.01464e+01  1.38773e+01 -5.98969e+01
       E -9.26356e+00 -4.54590e+00  4.25298e+01
       E -2.43841e+01  9.91459e+00  3.62383e+01
3
# CELL(abcABC): 1322.94304  1322.94304  1322.94304    90.00000    90.00000    90.00000  Step:         700  Bead:       4 positions{angstrom}  cell{angstrom}
       E -1.11293e+01 -2.89731e+00 -1.64904e+01
       E -1.73536e+01 -2.36056e+00 -4.00405e+00
       E -1.14506e+01  2.81456e+01  4.08599e+01
3
# CELL(abcABC): 1322.94304  1322.94304  1322.94304    90.00000    90.00000    90.00000  Step:         800  Bead:       4 positions{angstrom}  cell{angstrom}
       E -1.36952e+01  1.43685e+01 -3.21156e+01
       E -1.79117e+01  5.92980e+00 -6.14854e+00
       E -4.70902e+01  3.98783e+01  4.44487e+01
3
# CELL(abcABC): 1322.94304  1322.94304  1322.94304    90.00000    90.00000    90.00000  Step:         900  Bead:       4 positions{angstrom}  cell{angstrom}
       E  1.11049e+01 -8.78775e+00 -1.28215e+00
       E  4.52658e+01  1.70306e+00  1.35841e+01
       E -4.55486e+01  3.82609e+01  9.10013e+01
3
# CELL(abcABC): 1322.94304  1322.94304  1322.94304    90.00000    90.00000    90.00000  Step:        1000  Bead:       4 positions{angstrom}  cell{angstrom}
       E -2.58116e+01  9.14419e+00 -5.80322e+01
       E  2.65881e+01  1.37654e+01 -2.93253e+01
       E -9.49818e+00 -1.39520e+00  9.39991e+01
3
# CELL(abcABC): 1322.94304  1322.94304  1322.94304    90.00000    90.00000    90.00000  Step:        1100  Bead:       4 positions{angstrom}  cell{angstrom}
       E -9.87688e+00  3.00163e+01 -4.33239e+01
       E  4.40667e+01 -9.53289e+00 -4.64977e+01
       E -4.26680e+01 -7.05632e+00  4.44575e+01
3
# CELL(abcABC): 1322.94304  1322.94304  1322.94304    90.00000    90.00000    90.00000  Step:        1200  Bead:       4 positions{angstrom}  cell{angstrom}
       E  1.12337e+01  3.69183e+01 -6.06014e+01
       E  3.59735e+01 -2.41398e+01 -6.43247e+01
       E -2.64255e+01  2.31980e+01  2.96962e+01
3
# CELL(abcABC): 1322.94304  1322.94304  1322.94304    90.00000    90.00000    90.00000  Step:        1300  Bead:       4 positions{angstrom}  cell{angstrom}
       E  7.21716e+00  3.94873e+01 -5.80318e+01
       E -5.35467e+00 -6.50849e+01 -4.53523e+01
       E -2.80879e+01  4.49031e+01  1.17882e+01
3
# CELL(abcABC): 1322.94304  1322.94304  1322.94304    90.00000    90.00000    90.00000  Step:        1400  Bead:       4 positions{angstrom}  cell{angstrom}
       E -4.23665e+01  1.35547e+01 -5.56748e+01
       E -2.05317e+00 -1.29400e+01 -5.64937e+01
       E -4.80444e+01  1.24631e+01  3.96269e+01
3
# CELL(abcABC): 1322.94304  1322.94304  1322.94304    90.00000    90.00000    90.00000  Step:        1500  Bead:       4 positions{angstrom}  cell{angstrom}
       E -5.66940e+01  1.36718e+01 -3.98532e+01
       E -9.81623e-01 -1.31616e+01 -3.41173e+01
       E -2.88418e+01  1.74735e+01  1.63935e+01
3
# CELL(abcABC): 1322.94304  1322.94304  1322.94304    90.00000    90.00000    90.00000  Step:        1600  Bead:       4 positions{angstrom}  cell{angstrom}
       E -1.33953e+01  5.01710e+01 -1.23743e+01
       E -4.40238e+00 -1.95340e+01 -1.69043e+00
       E -1.52104e+01  5.56624e+01  8.59557e-01
3
# CELL(abcABC): 1322.94304  1322.94304  1322.94304    90.00000    90.00000    90.00000  Step:        1700  Bead:       4 positions{angstrom}  cell{angstrom}
       E -2.47622e+01  3.37069e+01 -1.65037e+01
       E -5.46324e+00 -7.52177e+00  1.36030e+01
       E -1.52669e+00  8.05256e+01  3.64073e+01
3
# CELL(abcABC): 1322.94304  1322.94304  1322.94304    90.00000    90.00000    90.00000  Step:        1800  Bead:       4 positions{angstrom}  cell{angstrom}
       E -6.68748e+01  2.68859e+01  1.64809e+01
       E -4.46990e+01  1.08448e+01  2.01625e+01
       E -8.24360e+01  5.99626e+01  3.87355e+01
3
# CELL(abcABC): 1322.94304  1322.94304  1322.94304    90.00000    90.00000    90.00000  Step:        1900  Bead:       4 positions{angstrom}  cell{angstrom}
       E -2.26721e+01  1.69527e+01  1.28994e+01
       E -7.10685e+01  3.48097e+00 -1.39929e+01
       E -7.40509e+01  6.10891e+01  6.36812e+01
3
# CELL(abcABC): 1322.94304  1322.94304  1322.94304    90.00000    90.00000    90.00000  Step:        2000  Bead:       4 positions{angstrom}  cell{angstrom}
       E  3.23014e-01  1.37901e+01  1.18961e+01
       E -4.09160e+01  1.49008e+01  4.36696e+01
       E -4.42695e+01  4.95890e+01  4.84595e+01
3
# CELL(abcABC): 1322.94304  1322.94304  1322.94304    90.00000    90.00000    90.00000  Step:        2100  Bead:       4 positions{angstrom}  cell{angstrom}
       E -3.50334e+01 -6.37396e+00  1.32933e+01
       E -5.32731e+01 -7.64337e+00  2.24983e+01
       E -8.22835e+01  2.35750e+01  3.08308e+01
3
# CELL(abcABC): 1322.94304  1322.94304  1322.94304    90.00000    90.00000    90.00000  Step:        2200  Bead:       4 positions{angstrom}  cell{angstrom}
       E -1.18692e+01 -4.08723e+00  4.97835e+00
       E -6.46812e+01 -2.51376e+01 -2.63272e+01
       E -3.83751e+01  7.74681e+00  3.89007e+01
3
# CELL(abcABC): 1322.94304  1322.94304  1322.94304    90.00000    90.00000    90.00000  Step:        2300  Bead:       4 positions{angstrom}  cell{angstrom}
       E  3.67264e+00  2.71774e+00  1.51422e+01
       E -9.48235e+00 -6.63277e+01 -3.41847e+01
       E  2.88722e+00  3.23386e+01  3.05962e+01
3
# CELL(abcABC): 1322.94304  1322.94304  1322.94304    90.00000    90.00000    90.00000  Step:        2400  Bead:       4 positions{angstrom}  cell{angstrom}
       E -2.04012e+01  8.89158e+00  2.37338e+01
       E  6.72607e+00 -7.13022e+01 -1.61636e+01
       E -1.40756e+01 -6.49836e+00  4.19474e+01
3
# CELL(abcABC): 1322.94304  1322.94304  1322.94304    90.00000    90.00000    90.00000  Step:        2500  Bead:       4 positions{angstrom}  cell{angstrom}
       E  2.06826e+01  5.67997e-01  5.08879e+01
       E  8.03453e+00 -3.15894e+01 -3.60374e+01
       E -4.67821e+01 -5.30184e+01  6.17553e+01
3
# CELL(abcABC): 1322.94304  1322.94304  1322.94304    90.00000    90.00000    90.00000  Step:        2600  Bead:       4 positions{angstrom}  cell{angstrom}
       E  2.78525e+01 -3.80798e+01  7.30209e+01
       E -2.98207e+01 -4.40261e+01 -4.72227e+01
       E -2.47910e+01 -4.06019e+01  6.02918e+01
3
# CELL(abcABC): 1322.94304  1322.94304  1322.94304    90.00000    90.00000    90.00000  Step:        2700  Bead:       4 positions{angstrom}  cell{angstrom}
       E  3.13729e+01 -3.13265e+01  3.86519e+01
       E -6.30571e+01 -4.88396e+01 -1.53646e+01
       E -4.75773e+01 -2.45685e+01  7.08714e+01
3
# CELL(abcABC): 1322.94304  1322.94304  1322.94304    90.00000    90.00000    90.00000  Step:        2800  Bead:       4 positions{angstrom}  cell{angstrom}
       E  2.12152e+01 -4.02385e+01  1.77009e+01
       E -2.60790e+01 -3.17507e+01 -3.92215e+01
       E -2.43353e+01  1.29494e+00  4.88246e+01
3
# CELL(abcABC): 1322.94304  1322.94304  1322.94304    90.00000    90.00000    90.00000  Step:        2900  Bead:       4 positions{angstrom}  cell{angstrom}
       E -3.11839e+01 -3.70504e+01 -8.40587e+00
       E -2.96091e+01 -4.55586e+01 -3.28728e+01
       E  2.47618e+01 -4.02978e+01  7.24844e+01
3
# CELL(abcABC): 1322.94304  1322.94304  1322.94304    90.00000    90.00000    90.00000  Step:        3000  Bead:       4 positions{angstrom}  cell{angstrom}
       E  7.56574e+00 -1.69402e+01 -2.57872e+01
       E -3.97898e+01 -4.36725e+01 -2.95039e+00
       E  6.16131e+00 -2.34222e+01  1.82293e+01
3
# CELL(abcABC): 1322.94304  1322.94304  1322.94304    90.00000    90.00000    90.00000  Step:        3100  Bead:       4 positions{angstrom}  cell{angstrom}
       E  1.18850e+01 -2.27175e+01  3.24449e+01
       E -2.43929e+01 -7.97763e+01  3.79714e+01
       E -5.51068e+01 -1.42530e+00  3.34219e+01
3
# CELL(abcABC): 1322.94304  1322.94304  1322.94304    90.00000    90.00000    90.00000  Step:        3200  Bead:       4 positions{angstrom}  cell{angstrom}
       E -5.83163e+00  2.34975e+01  5.51183e+01
       E -6.10985e+01 -6.15780e+01  1.47034e+01
       E -1.72182e+00  1.79377e+01  3.48860e+01
3
# CELL(abcABC): 1322.94304  1322.94304  1322.94304    90.00000    90.00000    90.00000  Step:        3300  Bead:       4 positions{angstrom}  cell{angstrom}
       E  7.94097e+00  3.54499e+01  3.99968e+01
       E -8.45730e+01 -2.38882e+01  6.34767e+01
       E -3.75752e+01  2.20964e+01  6.10281e+01
3
# CELL(abcABC): 1322.94304  1322.94304  1322.94304    90.00000    90.00000    90.00000  Step:        3400  Bead:       4 positions{angstrom}  cell{angstrom}
       E -2.01688e+01  3.17696e+01  4.75293e+01
       E -7.41297e+01 -4.07310e+01  4.18302e+01
       E -4.64087e+01  4.44253e+00  8.83825e+01
3
# CELL(abcABC): 1322.94304  1322.94304  1322.94304    90.00000    90.00000    90.00000  Step:        3500  Bead:       4 positions{angstrom}  cell{angstrom}
       E -3.17913e+01  1.99635e+01  6.52187e+00
       E -6.35285e+01 -5.84942e+01  4.82102e+01
       E -8.00993e+01  2.09715e+01  6.91480e+01
3
# CELL(abcABC): 1322.94304  1322.94304  1322.94304    90.00000    90.00000    90.00000  Step:        3600  Bead:       4 positions{angstrom}  cell{angstrom}
       E -3.21906e+01  9.16700e+00  1.23309e+01
       E -6.13453e+01 -3.92765e+01  1.50379e+01
       E -1.09442e+02 -1.72364e+01  2.56661e+01
3
# CELL(abcABC): 1322.94304  1322.94304  1322.94304    90.00000    90.00000    90.00000  Step:        3700  Bead:       4 positions{angstrom}  cell{angstrom}
       E -4.54501e+01 -1.13316e+01 -4.44211e+01
       E -1.30672e+01 -2.00761e+01  3.26210e+01
       E -5.17863e+01 -2.80183e+01  1.06025e+01
3
# CELL(abcABC): 1322.94304  1322.94304  1322.94304    90.00000    90.00000    90.00000  Step:        3800  Bead:       4 positions{angstrom}  cell{angstrom}
       E -6.00024e+01  3.26161e+00 -3.32179e+01
       E -4.78908e+00 -2.59945e+01 -1.46816e+01
       E -5.43409e+01 -4.43012e+01 -2.11001e+00
3
# CELL(abcABC): 1322.94304  1322.94304  1322.94304    90.00000    90.00000    90.00000  Step:        3900  Bead:       4 positions{angstrom}  cell{angstrom}
       E -5.36527e+01 -3.96364e+00 -1.06026e+00
       E -2.04319e+01 -2.10653e+01 -5.45306e+01
       E -4.12964e+01 -4.09282e+01  1.20585e+01
3
# CELL(abcABC): 1322.94304  1322.94304  1322.94304    90.00000    90.00000    90.00000  Step:        4000  Bead:       4 positions{angstrom}  cell{angstrom}
       E -4.24472e+01  2.01575e+01  1.86916e+01
       E -5.34512e+01 -1.19338e+01 -1.09132e+01
       E -6.04170e+01 -2.51112e+01 -5.71524e+00
3
# CELL(abcABC): 1322.94304  1322.94304  1322.94304    90.00000    90.00000    90.00000  Step:        4100  Bead:       4 positions{angstrom}  cell{angstrom}
       E -6.49494e+01  4.10976e+01 -5.19773e+01
       E -3.52754e+01  4.38337e+01  1.73570e+01
       E -8.55007e+01  2.45677e+01  7.81609e-01
3
# CELL(abcABC): 1322.94304  1322.94304  1322.94304    90.00000    90.00000    90.00000  Step:        4200  Bead:       4 positions{angstrom}  cell{angstrom}
       E -1.26812e+01  4.39671e+01 -4.53316e+01
       E -5.01881e+01  4.30231e+01  2.86960e+01
       E -9.12728e+01 -1.45850e+01 -2.00114e+01
3
# CELL(abcABC): 1322.94304  1322.94304  1322.94304    90.00000    90.00000    90.00000  Step:        4300  Bead:       4 positions{angstrom}  cell{angstrom}
       E -2.20989e+01  5.15430e+00 -5.48890e+01
       E -4.17336e+01  1.67302e+01  3.14290e+01
       E -7.44272e+01 -3.60371e+01  2.20704e+01
3
# CELL(abcABC): 1322.94304  1322.94304  1322.94304    90.00000    90.00000    90.00000  Step:        4400  Bead:       4 positions{angstrom}  cell{angstrom}
       E -3.71416e+01  2.02952e+01 -8.39493e+01
       E -6.08229e+01  7.18748e+01  1.44767e+01
       E -5.64990e+01 -7.47369e+00  2.84383e+01
3
# CELL(abcABC): 1322.94304  1322.94304  1322.94304    90.00000    90.00000    90.00000  Step:        4500  Bead:       4 positions{angstrom}  cell{angstrom}
       E -3.74770e+01  3.49952e+01 -5.91743e+01
       E -6.77750e+01  1.03528e+02  2.10049e+01
       E -2.91739e+01 -2.07297e+01  1.61706e+01
3
# CELL(abcABC): 1322.94304  1322.94304  1322.94304    90.00000    90.00000    90.00000  Step:        4600  Bead:       4 positions{angstrom}  cell{angstrom}
       E -3.25679e+01  3.33121e+01 -5.03633e+01
       E -8.37083e+01  3.32392e+01  1.47264e+01
       E -3.30578e+01 -1.21169e+01  1.78434e+01
3
# CELL(abcABC): 1322.94304  1322.94304  1322.94304    90.00000    90.00000    90.00000  Step:        4700  Bead:       4 positions{angstrom}  cell{angstrom}
       E -5.25286e+00  3.53006e+01 -5.19966e+01
       E -6.68036e+01  2.24151e+01 -7.65056e+00
       E -1.77438e+01  3.42607e+01  2.48034e+00
3
# CELL(abcABC): 1322.94304  1322.94304  1322.94304    90.00000    90.00000    90.00000  Step:        4800  Bead:       4 positions{angstrom}  cell{angstrom}
       E  2.99569e+01  3.60803e+01 -1.82535e+01
       E -8.18146e+01  2.59124e+01 -3.59056e+01
       E  3.18397e+01  1.60114e+01 -5.31257e+01
3
# CELL(abcABC): 1322.94304  1322.94304  1322.94304    90.00000    90.00000    90.00000  Step:        4900  Bead:       4 positions{angstrom}  cell{angstrom}
       E  6.63995e+01  4.57292e+01 -1.26844e-01
       E -1.22737e+02 -4.09478e+01 -3.36323e+01
       E  7.11670e-02  3.30857e+01 -7.71229e+01
3
# CELL(abcABC): 1322.94304  1322.94304  1322.94304    90.00000    90.00000    90.00000  Step:        5000  Bead:       4 positions{angstrom}  cell{angstrom}
       E  4.44813e+01  2.03752e+01  1.67086e+01
       E -5.91322e+01 -6.26298e+01 -7.82552e+00
       E -2.48476e+01  1.48089e+01 -6.80650e+01
3
# CELL(abcABC): 1322.94304  1322.94304  1322.94304    90.00000    90.00000    90.00000  Step:        5100  Bead:       4 positions{angstrom}  cell{angstrom}
       E  1.88372e+01  2.82219e+01  2.58410e+01
       E -7.40444e+01 -4.75504e+01  9.44134e+00
       E  2.18847e+01 -8.24127e+00 -3.34789e+00
3
# CELL(abcABC): 1322.94304  1322.94304  1322.94304    90.00000    90.00000    90.00000  Step:        5200  Bead:       4 positions{angstrom}  cell{angstrom}
       E  5.22014e+01  4.74552e+01 -7.42087e+00
       E -2.55816e+01 -1.60661e+00 -3.64271e+00
       E  8.08806e-01  2.48531e+01 -1.35897e+01
3
# CELL(abcABC): 1322.94304  1322.94304  1322.94304    90.00000    90.00000    90.00000  Step:        5300  Bead:       4 positions{angstrom}  cell{angstrom}
       E  1.69033e+01  1.21147e+01  2.74951e+01
       E -3.09126e+01  2.95039e+01 -3.35918e+01
       E  3.00963e+00  2.93278e+01 -3.07121e+00
3
# CELL(abcABC): 1322.94304  1322.94304  1322.94304    90.00000    90.00000    90.00000  Step:        5400  Bead:       4 positions{angstrom}  cell{angstrom}
       E  3.77265e+00  2.07161e+01  5.51053e+01
       E -4.65249e+01 -1.04813e+01 -3.09504e+01
       E -6.84916e+00  4.44058e+01  3.83567e+01
3
# CELL(abcABC): 1322.94304  1322.94304  1322.94304    90.00000    90.00000    90.00000  Step:        5500  Bead:       4 positions{angstrom}  cell{angstrom}
       E -2.17657e+01  4.53763e+01  5.29118e+01
       E -3.99772e+01 -1.50065e+00 -1.64511e+01
       E -7.11604e+00  6.20295e+00  2.69085e+01
3
# CELL(abcABC): 1322.94304  1322.94304  1322.94304    90.00000    90.00000    90.00000  Step:        5600  Bead:       4 positions{angstrom}  cell{angstrom}
       E -1.58122e+00  4.16535e+01  2.38061e+01
       E -6.90059e+00  1.81817e+01 -1.55077e+01
       E -8.93071e+00  1.38415e+01  2.15547e+01
3
# CELL(abcABC): 1322.94304  1322.94304  1322.94304    90.00000    90.00000    90.00000  Step:        5700  Bead:       4 positions{angstrom}  cell{angstrom}
       E -1.51152e+01  3.48888e+01  6.23051e+00
       E -8.95124e+00  3.65106e+01 -1.31239e+01
       E -4.48053e+01  1.44097e+01  6.76148e+00
3
# CELL(abcABC): 1322.94304  1322.94304  1322.94304    90.00000    90.00000    90.00000  Step:        5800  Bead:       4 positions{angstrom}  cell{angstrom}
       E -3.70288e+01  1.50210e+01  1.05311e+01
       E -2.37269e+01  3.64398e+01  2.25777e+01
       E  1.25256e+01  1.44003e+01  1.24745e+01
3
# CELL(abcABC): 1322.94304  1322.94304  1322.94304    90.00000    90.00000    90.00000  Step:        5900  Bead:       4 positions{angstrom}  cell{angstrom}
       E -1.10964e+01 -1.00208e+01  6.29529e+00
       E -4.88222e+01  1.69063e+01 -2.97270e+01
       E -2.02390e+01 -1.19378e+01 -2.83731e+01
3
# CELL(abcABC): 1322.94304  1322.94304  1322.94304    90.00000    90.00000    90.00000  Step:        6000  Bead:       4 positions{angstrom}  cell{angstrom}
       E  6.31203e+00 -1.40355e+01 -2.08375e+01
       E -1.64367e+01  3.17529e+01 -2.81873e+01
       E  3.97015e+01 -5.13070e+01 -1.07119e+01
3
# CELL(abcABC): 1322.94304  1322.94304  1322.94304    90.00000    90.00000    90.00000  Step:        6100  Bead:       4 positions{angstrom}  cell{angstrom}
       E  3.97392e+01 -1.66916e+01 -7.05628e+01
       E  1.76069e+01 -7.97786e+00  2.12196e+01
       E  1.58547e+01 -6.77216e+00 -1.90332e+01
3
# CELL(abcABC): 1322.94304  1322.94304  1322.94304    90.00000    90.00000    90.00000  Step:        6200  Bead:       4 positions{angstrom}  cell{angstrom}
       E  4.89292e+01 -2.79895e+01 -8.83352e+01
       E  4.88778e+01 -3.96527e+01  4.12881e+00
       E  2.21866e+01 -1.45918e+01 -2.83039e+01
3
# CELL(abcABC): 1322.94304  1322.94304  1322.94304    90.00000    90.00000    90.00000  Step:        6300  Bead:       4 positions{angstrom}  cell{angstrom}
       E  6.08089e+01 -3.39402e+01 -9.20023e+01
       E  3.95813e+01 -4.64874e+01 -1.71697e+01
       E  1.59277e+01 -1.73967e+01  1.09681e+01
3
# CELL(abcABC): 1322.94304  1322.94304  1322.94304    90.00000    90.00000    90.00000  Step:        6400  Bead:       4 positions{angstrom}  cell{angstrom}
       E  1.65543e+01 -6.87179e+01 -8.92585e+01
       E  7.47534e+01 -5.11797e+01 -3.17580e+01
       E  3.26943e+01 -4.27029e+01  3.43979e+01
3
# CELL(abcABC): 1322.94304  1322.94304  1322.94304    90.00000    90.00000    90.00000  Step:        6500  Bead:       4 positions{angstrom}  cell{angstrom}
       E -1.43498e+01 -1.00363e+02 -1.13747e+02
       E  5.54038e+01 -1.62410e+01 -4.08694e+01
       E -1.87057e+01 -4.39166e+01  2.19536e+01
3
# CELL(abcABC): 1322.94304  1322.94304  1322.94304    90.00000    90.00000    90.00000  Step:        6600  Bead:       4 positions{angstrom}  cell{angstrom}
       E -4.88031e+00 -9.22432e+01 -1.30131e+02
       E  2.25910e+00 -5.08056e+00 -3.28067e+01
       E  5.91314e+00 -1.61306e+01  6.07527e+01
3
# CELL(abcABC): 1322.94304  1322.94304  1322.94304    90.00000    90.00000    90.00000  Step:        6700  Bead:       4 positions{angstrom}  cell{angstrom}
       E  2.09360e+00 -6.64796e+01 -1.16542e+02
       E -3.05572e+00 -3.37747e+01 -1.42718e+01
       E -2.09985e+01 -1.85859e+01  1.53358e+00
3
# CELL(abcABC): 1322.94304  1322.94304  1322.94304    90.00000    90.00000    90.00000  Step:        6800  Bead:       4 positions{angstrom}  cell{angstrom}
       E -4.78135e+00 -4.71349e+01 -6.78148e+01
       E  2.96694e+01 -4.79552e+01 -3.28041e+01
       E -2.96165e+01  2.99987e+01  3.48782e+01
3
# CELL(abcABC): 1322.94304  1322.94304  1322.94304    90.00000    90.00000    90.00000  Step:        6900  Bead:       4 positions{angstrom}  cell{angstrom}
       E -9.33890e-01 -5.93963e+01 -6.67364e+01
       E  2.17752e+01 -9.08944e+00 -1.50520e+01
       E -2.87083e+01  1.50733e+01  3.30017e+01
3
# CELL(abcABC): 1322.94304  1322.94304  1322.94304    90.00000    90.00000    90.00000  Step:        7000  Bead:       4 positions{angstrom}  cell{angstrom}
       E -4.43187e+01 -2.27395e+01 -4.65012e+01
       E  1.29162e+01  2.13195e+00 -1.24793e+01
       E  2.47679e+01  3.48119e+01  3.99051e+01
3
# CELL(abcABC): 1322.94304  1322.94304  1322.94304    90.00000    90.00000    90.00000  Step:        7100  Bead:       4 positions{angstrom}  cell{angstrom}
       E -1.53295e+01 -7.13994e+00 -3.35966e+01
       E -4.44152e+01  3.92514e+01  5.41798e+00
       E  5.16488e+00  2.11209e+01  4.57860e+01
3
# CELL(abcABC): 1322.94304  1322.94304  1322.94304    90.00000    90.00000    90.00000  Step:        7200  Bead:       4 positions{angstrom}  cell{angstrom}
       E -5.49601e+00 -3.55191e+01 -4.22308e+01
       E -2.81394e+01  4.71752e+01  3.29740e+01
       E  5.82856e+01  6.60685e+01  1.48189e+01
3
# CELL(abcABC): 1322.94304  1322.94304  1322.94304    90.00000    90.00000    90.00000  Step:        7300  Bead:       4 positions{angstrom}  cell{angstrom}
       E -6.89784e+00 -3.02991e+01 -4.12474e+01
       E  2.11725e+00  4.73638e+01  4.02828e+01
       E  6.56605e+01  2.20483e+01  9.23114e+00
3
# CELL(abcABC): 1322.94304  1322.94304  1322.94304    90.00000    90.00000    90.00000  Step:        7400  Bead:       4 positions{angstrom}  cell{angstrom}
       E  6.14861e+00 -2.57498e+01  4.71379e+00
       E -2.89521e+01  1.65317e+01  6.20681e+01
       E  7.35355e+01  4.75686e+01 -4.07599e+01
3
# CELL(abcABC): 1322.94304  1322.94304  1322.94304    90.00000    90.00000    90.00000  Step:        7500  Bead:       4 positions{angstrom}  cell{angstrom}
       E -2.38348e+01 -4.90523e+01 -1.88426e+01
       E -2.69302e+01 -1.23356e+01  1.43756e+01
       E  1.01419e+02  6.55261e+01 -2.70306e+01
3
# CELL(abcABC): 1322.94304  1322.94304  1322.94304    90.00000    90.00000    90.00000  Step:        7600  Bead:       4 positions{angstrom}  cell{angstrom}
       E -3.66167e+01 -6.45309e+01 -2.05038e+01
       E -1.29134e+01 -4.62139e+01  7.68938e+00
       E  8.11695e+01  6.03835e+01 -5.21445e+01
3
# CELL(abcABC): 1322.94304  1322.94304  1322.94304    90.00000    90.00000    90.00000  Step:        7700  Bead:       4 positions{angstrom}  cell{angstrom}
       E  5.43563e+00 -8.09062e+01 -2.33439e+01
       E  7.29221e+00 -5.37495e+01 -2.06078e+01
       E  6.73800e+01  2.54541e+01 -3.12128e+01
3
# CELL(abcABC): 1322.94304  1322.94304  1322.94304    90.00000    90.00000    90.00000  Step:        7800  Bead:       4 positions{angstrom}  cell{angstrom}
       E  1.82232e+01 -2.96112e+01 -5.18577e+01
       E  1.68608e+01 -3.62505e+01 -1.79642e+01
       E  4.21122e+01  2.26893e+01 -6.14142e+01
3
# CELL(abcABC): 1322.94304  1322.94304  1322.94304    90.00000    90.00000    90.00000  Step:        7900  Bead:       4 positions{angstrom}  cell{angstrom}
       E  3.42991e+01  1.09260e+01 -6.19672e+01
       E  4.57967e+01 -1.51104e+01 -2.36007e+01
       E  6.42249e+01  4.34063e+01 -2.73713e+01
3
# CELL(abcABC): 1322.94304  1322.94304  1322.94304    90.00000    90.00000    90.00000  Step:        8000  Bead:       4 positions{angstrom}  cell{angstrom}
       E -7.57945e+00  1.71295e+01 -2.84421e+01
       E  2.90308e+01 -3.58542e+01 -4.77870e+01
       E  3.42482e+01  4.71281e+01 -2.05756e+01
3
# CELL(abcABC): 1322.94304  1322.94304  1322.94304    90.00000    90.00000    90.00000  Step:        8100  Bead:       4 positions{angstrom}  cell{angstrom}
       E  9.27185e+00  7.87326e+00 -7.23803e+00
       E  9.95327e+00  3.99144e+00 -3.84658e+01
       E  2.06050e+01 -5.79374e+00  5.07167e-01
3
# CELL(abcABC): 1322.94304  1322.94304  1322.94304    90.00000    90.00000    90.00000  Step:        8200  Bead:       4 positions{angstrom}  cell{angstrom}
       E  2.48841e+01  2.09702e+01 -4.41214e+01
       E  2.59178e+01  2.71631e+01 -2.68138e+00
       E  4.22122e+01 -2.73748e+01  2.38354e+01
3
# CELL(abcABC): 1322.94304  1322.94304  1322.94304    90.00000    90.00000    90.00000  Step:        8300  Bead:       4 positions{angstrom}  cell{angstrom}
       E  1.53350e+01 -2.91240e+00 -4.34034e+01
       E  2.62197e+01  5.90484e+00  3.60873e+01
       E -2.49790e+00 -3.00688e+01  3.78832e+01
3
# CELL(abcABC): 1322.94304  1322.94304  1322.94304    90.00000    90.00000    90.00000  Step:        8400  Bead:       4 positions{angstrom}  cell{angstrom}
       E  3.87950e+01  1.91700e+01  4.78750e+00
       E  1.26485e+01  3.05032e+00  3.23172e+01
       E  2.65650e+01  4.07868e+00  1.44287e+01
3
# CELL(abcABC): 1322.94304  1322.94304  1322.94304    90.00000    90.00000    90.00000  Step:        8500  Bead:       4 positions{angstrom}  cell{angstrom}
       E -1.20170e+01  8.60261e+00 -1.35070e+01
       E  6.91949e+01  7.80957e+00  2.68227e+01
       E  5.34683e+01 -2.51792e+01  2.06962e+01
3
# CELL(abcABC): 1322.94304  1322.94304  1322.94304    90.00000    90.00000    90.00000  Step:        8600  Bead:       4 positions{angstrom}  cell{angstrom}
       E -5.18388e+01  1.15075e+01 -4.25489e+00
       E  4.32805e+01  3.45326e+01 -3.53631e+00
       E  5.01480e+01 -1.67921e+01  4.77407e+01
3
# CELL(abcABC): 1322.94304  1322.94304  1322.94304    90.00000    90.00000    90.00000  Step:        8700  Bead:       4 positions{angstrom}  cell{angstrom}
       E -1.43481e+01  2.44042e+01 -2.04838e+01
       E  5.21722e+01 -2.49470e+01  2.61826e+00
       E  3.25009e+01 -3.58746e+01  2.88393e+01
3
# CELL(abcABC): 1322.94304  1322.94304  1322.94304    90.00000    90.00000    90.00000  Step:        8800  Bead:       4 positions{angstrom}  cell{angstrom}
       E -1.11398e+01  3.73741e+01  1.34913e+01
       E  4.05659e+00 -1.01411e+01 -2.02727e+01
       E  4.03516e+01 -7.38029e+01  5.74080e+01
3
# CELL(abcABC): 1322.94304  1322.94304  1322.94304    90.00000    90.00000    90.00000  Step:        8900  Bead:       4 positions{angstrom}  cell{angstrom}
       E -1.31853e+01  3.29842e+01  1.30520e+01
       E -2.64424e+01 -3.77129e+01  5.16333e+01
       E  1.99540e+01 -6.54804e+01  3.06366e+01
3
# CELL(abcABC): 1322.94304  1322.94304  1322.94304    90.00000    90.00000    90.00000  Step:        9000  Bead:       4 positions{angstrom}  cell{angstrom}
       E -1.51391e+01  2.63347e+01  1.09992e+01
       E -5.17030e+01 -2.45624e+01  3.09275e+01
       E  1.33552e+01 -7.77737e+01 -9.53730e-01
3
# CELL(abcABC): 1322.94304  1322.94304  1322.94304    90.00000    90.00000    90.00000  Step:        9100  Bead:       4 positions{angstrom}  cell{angstrom}
       E  2.07451e+01  2.72922e+01  3.39593e+01
       E -5.51177e+01 -2.39178e+01  3.65645e+01
       E -4.21392e+00 -6.95360e+01 -2.27019e+01
3
# CELL(abcABC): 1322.94304  1322.94304  1322.94304    90.00000    90.00000    90.00000  Step:        9200  Bead:       4 positions{angstrom}  cell{angstrom}
       E -7.18796e+00  3.53478e+01  1.57500e+01
       E  9.77902e+00 -4.49558e-01  4.26754e+01
       E -1.56594e+00 -2.33348e+01 -6.28459e+00
3
# CELL(abcABC): 1322.94304  1322.94304  1322.94304    90.00000    90.00000    90.00000  Step:        9300  Bead:       4 positions{angstrom}  cell{angstrom}
       E  1.15293e+01  4.24310e+01 -4.61955e+01
       E -2.18318e+00 -4.42545e+01  1.83956e+01
       E  4.32825e+01 -2.78979e+01 -8.50533e+00
3
# CELL(abcABC): 1322.94304  1322.94304  1322.94304    90.00000    90.00000    90.00000  Step:        9400  Bead:       4 positions{angstrom}  cell{angstrom}
       E  2.17649e+01  5.15511e+01 -2.69931e+01
       E  2.24434e+01 -2.06475e+01  4.50794e+00
       E  2.11963e+01 -1.98913e+01  1.75456e+01
3
# CELL(abcABC): 1322.94304  1322.94304  1322.94304    90.00000    90.00000    90.00000  Step:        9500  Bead:       4 positions{angstrom}  cell{angstrom}
       E  3.80844e+01  5.52321e+00 -2.25167e+01
       E  4.60220e+01  8.11233e+00  1.19817e+01
       E  6.45189e+00 -4.03394e+01  1.49231e+01
3
# CELL(abcABC): 1322.94304  1322.94304  1322.94304    90.00000    90.00000    90.00000  Step:        9600  Bead:       4 positions{angstrom}  cell{angstrom}
       E -2.09520e+01 -7.39331e-01 -5.11460e+01
       E  5.77027e+01 -5.73623e+01  3.76559e+01
       E -2.01779e+01 -1.91454e+01 -1.15110e+00
3
# CELL(abcABC): 1322.94304  1322.94304  1322.94304    90.00000    90.00000    90.00000  Step:        9700  Bead:       4 positions{angstrom}  cell{angstrom}
       E -7.15524e+01 -4.48009e+00 -9.24539e+01
       E  1.92162e+01 -5.34497e+01  5.61813e+01
       E -3.11956e+00 -2.97130e+01  1.06284e+01
3
# CELL(abcABC): 1322.94304  1322.94304  1322.94304    90.00000    90.00000    90.00000  Step:        9800  Bead:       4 positions{angstrom}  cell{angstrom}
       E -1.49065e+01 -4.01954e+01 -4.61779e+01
       E  4.73474e+01 -8.55112e+01 -6.58419e+00
       E -5.39610e+00 -3.03227e+01  3.34518e+01
3