3
# CELL(abcABC): 1322.94304  1322.94304  1322.94304    90.00000    90.00000    90.00000  Step:           0  Bead:      25 positions{angstrom}  cell{angstrom}
       E  0.00000e+00  0.00000e+00  0.00000e+00
       E  0.00000e+00  0.00000e+00  0.00000e+00
       E  0.00000e+00  0.00000e+00  0.00000e+00
3
# CELL(abcABC): 1322.94304  1322.94304  1322.94304    90.00000    90.00000    90.00000  Step:         100  Bead:      25 positions{angstrom}  cell{angstrom}
       E  4.06969e+01 -1.64379e+01  1.23570e+01
       E  8.77377e+00 -5.20190e+01  2.13716e+01
       E -1.52182e+01 -7.03992e+00 -4.73982e+00
3
# CELL(abcABC): 1322.94304  1322.94304  1322.94304    90.00000    90.00000    90.00000  Step:         200  Bead:      25 positions{angstrom}  cell{angstrom}
       E  2.20873e+00  9.27250e+00  3.99748e+01
       E -1.29917e+01 -7.45306e+01  1.06172e+01
       E  9.48067e+00  1.50686e+01  3.11603e+00
3
# CELL(abcABC): 1322.94304  1322.94304  1322.94304    90.00000    90.00000    90.00000  Step:         300  Bead:      25 positions{angstrom}  cell{angstrom}
       E  1.54118e+01  4.19839e-01  2.06236e+01
       E  5.52229e+00 -3.48273e+01 -3.66668e-01
       E  9.78375e+00 -1.74977e+00  2.10887e+00
3
# CELL(abcABC): 1322.94304  1322.94304  1322.94304    90.00000    90.00000    90.00000  Step:         400  Bead:      25 positions{angstrom}  cell{angstrom}
       E  6.61728e+00  3.05990e+01  1.10931e+00
       E  1.05027e+01 -3.77378e+01 -1.64602e+01
       E  2.87996e+01 -1.73099e+00 -1.22865e+01
3
# CELL(abcABC): 1322.94304  1322.94304  1322.94304    90.00000    90.00000    90.00000  Step:         500  Bead:      25 positions{angstrom}  cell{angstrom}
       E  3.40717e+01 -2.05452e+00 -1.81453e+01
       E -1.18309e+00  6.19706e+00  2.26315e+01
       E  3.32681e+01 -8.88951e+00 -7.68261e+00
3
# CELL(abcABC): 1322.94304  1322.94304  1322.94304    90.00000    90.00000    90.00000  Step:         600  Bead:      25 positions{angstrom}  cell{angstrom}
       E  1.90080e+01 -1.19527e+00  5.65105e+00
       E  1.04853e+01 -1.41450e+01  3.99375e+01
       E  4.03195e+01  2.49275e+01  1.79983e+01
3
# CELL(abcABC): 1322.94304  1322.94304  1322.94304    90.00000    90.00000    90.00000  Step:         700  Bead:      25 positions{angstrom}  cell{angstrom}
       E  2.25106e+01  2.96170e+00  1.36705e+00
       E  1.12103e+01 -2.55136e+01  3.75433e+01
       E -2.02687e+01  1.74255e+01  2.28737e+01
3
# CELL(abcABC): 1322.94304  1322.94304  1322.94304    90.00000    90.00000    90.00000  Step:         800  Bead:      25 positions{angstrom}  cell{angstrom}
       E  3.55836e+01  1.62653e+01  1.19223e+01
       E  3.05629e+01 -6.38235e+00  3.11403e+01
       E -3.03401e+01  3.49945e+01  1.65620e+01
3
# CELL(abcABC): 1322.94304  1322.94304  1322.94304    90.00000    90.00000    90.00000  Step:         900  Bead:      25 positions{angstrom}  cell{angstrom}
       E  7.63559e+00  3.25058e+01 -2.21128e+01
       E -1.02890e+01 -1.33885e+01  2.30146e+01
       E -5.15572e+01  1.38012e+01  8.03337e+01
3
# CELL(abcABC): 1322.94304  1322.94304  1322.94304    90.00000    90.00000    90.00000  Step:        1000  Bead:      25 positions{angstrom}  cell{angstrom}
       E  1.04732e+01  3.31158e+01 -2.95517e+01
       E  5.98777e+00  2.92481e+01  3.47130e+00
       E -1.51889e+01  3.63041e+01  4.77598e+01
3
# CELL(abcABC): 1322.94304  1322.94304  1322.94304    90.00000    90.00000    90.00000  Step:        1100  Bead:      25 positions{angstrom}  cell{angstrom}
       E -1.10580e+01  2.23259e+01 -1.67632e+01
       E -7.65555e+00  1.36186e+01 -3.31726e+01
       E  1.66591e+01  1.33771e+01  3.18297e+01
3
# CELL(abcABC): 1322.94304  1322.94304  1322.94304    90.00000    90.00000    90.00000  Step:        1200  Bead:      25 positions{angstrom}  cell{angstrom}
       E -1.96648e+00  9.40069e-01 -1.20100e+01
       E  2.06986e+01  1.77856e+01 -4.02512e+01
       E  3.90425e+00  8.53954e+01  1.71740e+01
3
# CELL(abcABC): 1322.94304  1322.94304  1322.94304    90.00000    90.00000    90.00000  Step:        1300  Bead:      25 positions{angstrom}  cell{angstrom}
       E  4.73765e+00  2.55192e+01 -2.81785e+01
       E  1.62982e+01 -7.43378e+00 -8.42223e+01
       E -6.53867e+00  4.21571e+01  1.85590e+00
3
# CELL(abcABC): 1322.94304  1322.94304  1322.94304    90.00000    90.00000    90.00000  Step:        1400  Bead:      25 positions{angstrom}  cell{angstrom}
       E -2.35907e+01  5.65500e+01 -3.44950e+01
       E -9.67250e+00 -1.89788e+01 -5.34077e+01
       E -1.03859e+01  1.24152e+01  4.64361e+00
3
# CELL(abcABC): 1322.94304  1322.94304  1322.94304    90.00000    90.00000    90.00000  Step:        1500  Bead:      25 positions{angstrom}  cell{angstrom}
       E  3.47144e+00  5.39153e+01 -5.80294e+01
       E -2.52705e+01  2.20808e+00 -4.87368e+01
       E  1.54735e+01  1.67677e+01  3.42697e+01
3
# CELL(abcABC): 1322.94304  1322.94304  1322.94304    90.00000    90.00000    90.00000  Step:        1600  Bead:      25 positions{angstrom}  cell{angstrom}
       E -3.03611e+01  3.24723e+01 -5.61034e+01
       E -3.92883e+01  2.05508e+00  3.36107e+01
       E  3.78464e+00  4.96043e+01  1.40646e+01
3
# CELL(abcABC): 1322.94304  1322.94304  1322.94304    90.00000    90.00000    90.00000  Step:        1700  Bead:      25 positions{angstrom}  cell{angstrom}
       E -3.74354e+01  3.43879e+01  1.66997e+00
       E -2.47461e+01  3.02609e+01  3.91689e+01
       E -4.54964e+00  2.76351e+01 -2.39650e+01
3
# CELL(abcABC): 1322.94304  1322.94304  1322.94304    90.00000    90.00000    90.00000  Step:        1800  Bead:      25 positions{angstrom}  cell{angstrom}
       E -1.68538e+01  3.27771e+01  3.95182e+01
       E -5.01782e+01  1.18335e+01  4.11671e+00
       E -3.13555e+01  4.57649e+01 -1.39995e+01
3
# CELL(abcABC): 1322.94304  1322.94304  1322.94304    90.00000    90.00000    90.00000  Step:        1900  Bead:      25 positions{angstrom}  cell{angstrom}
       E -4.00853e+00  6.63915e+00  3.05302e+01
       E -4.85641e+01  5.06579e+01  2.97914e+00
       E -2.72151e+01  2.49681e+01 -2.38167e+00
3
# CELL(abcABC): 1322.94304  1322.94304  1322.94304    90.00000    90.00000    90.00000  Step:        2000  Bead:      25 positions{angstrom}  cell{angstrom}
       E -3.84448e+01 -2.14500e+01  6.45626e+01
       E -2.05220e+01  2.50813e+01  5.32685e+00
       E -6.66828e+01  4.52499e+01 -1.36314e+01
3
# CELL(abcABC): 1322.94304  1322.94304  1322.94304    90.00000    90.00000    90.00000  Step:        2100  Bead:      25 positions{angstrom}  cell{angstrom}
       E -2.82963e+01 -2.23337e+01  2.83497e+01
       E  3.46643e+00 -5.31143e+00  2.89607e+01
       E -2.74065e+01  6.74698e+01  2.45982e+00
3
# CELL(abcABC): 1322.94304  1322.94304  1322.94304    90.00000    90.00000    90.00000  Step:        2200  Bead:      25 positions{angstrom}  cell{angstrom}
       E -5.06578e+01  1.17431e+00  1.31906e+01
       E  3.02209e+00  2.03574e-01  5.24480e+00
       E -6.57866e+00 -9.66378e+00 -1.00572e+01
3
# CELL(abcABC): 1322.94304  1322.94304  1322.94304    90.00000    90.00000    90.00000  Step:        2300  Bead:      25 positions{angstrom}  cell{angstrom}
       E -6.24885e+01 -2.48050e+01  5.86051e+00
       E -3.21593e+01  1.30118e+01 -8.55044e+00
       E -7.38645e+00 -2.69773e+01 -4.05534e+01
3
# CELL(abcABC): 1322.94304  1322.94304  1322.94304    90.00000    90.00000    90.00000  Step:        2400  Bead:      25 positions{angstrom}  cell{angstrom}
       E -6.15197e+01 -3.00828e+01  3.33569e+01
       E -3.15674e+01 -3.47468e+01 -2.20080e+01
       E  2.42181e+01 -3.48202e+01 -4.82801e+01
3
# CELL(abcABC): 1322.94304  1322.94304  1322.94304    90.00000    90.00000    90.00000  Step:        2500  Bead:      25 positions{angstrom}  cell{angstrom}
       E -5.23344e+01  4.81494e+01  3.49697e+01
       E -1.54770e+01 -7.06203e+01 -3.19728e+01
       E  2.69410e+01 -2.79929e+01  1.60298e+01
3
# CELL(abcABC): 1322.94304  1322.94304  1322.94304    90.00000    90.00000    90.00000  Step:        2600  Bead:      25 positions{angstrom}  cell{angstrom}
       E -7.71573e+01 -1.49259e+01  6.45350e+01
       E -6.37045e+01 -5.66741e+01 -1.83456e+01
       E  3.84839e+01 -2.96079e+01  6.64370e+01
3
# CELL(abcABC): 1322.94304  1322.94304  1322.94304    90.00000    90.00000    90.00000  Step:        2700  Bead:      25 positions{angstrom}  cell{angstrom}
       E -7.18922e+01 -4.31436e+01  7.52612e+01
       E -2.24348e+01 -4.91278e+01 -3.77453e+01
       E  5.07515e+00 -2.76080e+01  1.07411e+02
3
# CELL(abcABC): 1322.94304  1322.94304  1322.94304    90.00000    90.00000    90.00000  Step:        2800  Bead:      25 positions{angstrom}  cell{angstrom}
       E -5.51812e+01 -4.34195e+01  8.28399e+01
       E -6.30853e+01 -5.15092e+01 -1.26344e+01
       E  4.08725e+01 -2.39819e+01  6.39476e+01
3
# CELL(abcABC): 1322.94304  1322.94304  1322.94304    90.00000    90.00000    90.00000  Step:        2900  Bead:      25 positions{angstrom}  cell{angstrom}
       E -7.41927e+01 -4.01201e+01  7.43901e+01
       E -6.18746e+01 -3.52846e+01  2.60275e+01
       E  4.71188e+01 -4.61992e+01  4.49388e+01
3
# CELL(abcABC): 1322.94304  1322.94304  1322.94304    90.00000    90.00000    90.00000  Step:        3000  Bead:      25 positions{angstrom}  cell{angstrom}
       E -6.21149e+01 -2.73282e+01  6.76209e+01
       E -7.52297e+01 -7.16705e+01  2.46319e+01
       E  7.85048e-01  9.37122e-01 -2.09768e+01
3
# CELL(abcABC): 1322.94304  1322.94304  1322.94304    90.00000    90.00000    90.00000  Step:        3100  Bead:      25 positions{angstrom}  cell{angstrom}
       E -4.60237e+01 -2.44859e+01  5.99022e+01
       E -7.89906e+01 -7.25722e+01  6.38318e+01
       E  4.75429e+01  5.18388e+01 -1.74545e+01
3
# CELL(abcABC): 1322.94304  1322.94304  1322.94304    90.00000    90.00000    90.00000  Step:        3200  Bead:      25 positions{angstrom}  cell{angstrom}
       E -4.01163e+01 -3.15618e+01  4.37459e+01
       E -5.45360e+01 -1.24810e+01  9.46030e+01
       E  1.57714e+01  4.13152e+01 -4.73533e+00
3
# CELL(abcABC): 1322.94304  1322.94304  1322.94304    90.00000    90.00000    90.00000  Step:        3300  Bead:      25 positions{angstrom}  cell{angstrom}
       E -1.60591e+01  8.05550e+00  6.62639e+01
       E -9.15567e+01  2.22861e+01  6.78871e+01
       E  1.40005e+01  6.00956e+01  2.35816e-01
3
# CELL(abcABC): 1322.94304  1322.94304  1322.94304    90.00000    90.00000    90.00000  Step:        3400  Bead:      25 positions{angstrom}  cell{angstrom}
       E -7.43992e+01  4.37241e+01  8.78882e+01
       E -4.84956e+01 -2.76886e+01  2.38826e+01
       E -1.81750e+00  6.59769e+01  6.29752e+01
3
# CELL(abcABC): 1322.94304  1322.94304  1322.94304    90.00000    90.00000    90.00000  Step:        3500  Bead:      25 positions{angstrom}  cell{angstrom}
       E -6.42717e+01  3.40739e+01  8.76422e+01
       E -3.46747e+01 -2.57738e+01  2.99466e+01
       E  1.17887e+01  3.22128e+01  2.60582e+01
3
# CELL(abcABC): 1322.94304  1322.94304  1322.94304    90.00000    90.00000    90.00000  Step:        3600  Bead:      25 positions{angstrom}  cell{angstrom}
       E -8.34529e+01 -2.42631e+01  5.00824e+01
       E -2.99148e+01 -3.89798e+01  6.94884e+01
       E -6.70562e+01  1.43083e+01  9.28667e+00
3
# CELL(abcABC): 1322.94304  1322.94304  1322.94304    90.00000    90.00000    90.00000  Step:        3700  Bead:      25 positions{angstrom}  cell{angstrom}
       E -8.58041e+01 -8.12088e+00  2.48995e+01
       E  1.47544e+01 -3.93091e+01  2.82319e+01
       E -6.84131e+01 -2.12244e-01 -2.15632e+00
3
# CELL(abcABC): 1322.94304  1322.94304  1322.94304    90.00000    90.00000    90.00000  Step:        3800  Bead:      25 positions{angstrom}  cell{angstrom}
       E -7.58054e+01  1.11936e+00  2.60655e+01
       E -6.81744e+00 -3.48048e+01  1.03170e+01
       E -2.34408e+01 -4.36974e+01 -1.37079e+01
3
# CELL(abcABC): 1322.94304  1322.94304  1322.94304    90.00000    90.00000    90.00000  Step:        3900  Bead:      25 positions{angstrom}  cell{angstrom}
       E -4.12967e+01  1.10111e+01  1.72339e+01
       E -9.41054e+00 -3.55196e+01  3.08787e+01
       E -8.97302e+00 -1.66844e+01 -3.83424e+00
3
# CELL(abcABC): 1322.94304  1322.94304  1322.94304    90.00000    90.00000    90.00000  Step:        4000  Bead:      25 positions{angstrom}  cell{angstrom}
       E -5.62117e+01  3.73332e+00 -1.73019e+01
       E -4.76228e+01 -1.47244e+01  1.42682e+00
       E -5.00232e+01  6.41024e+00 -2.16822e+01
3
# CELL(abcABC): 1322.94304  1322.94304  1322.94304    90.00000    90.00000    90.00000  Step:        4100  Bead:      25 positions{angstrom}  cell{angstrom}
       E -5.75731e+01 -4.48590e+00 -6.26012e+01
       E -6.97517e+01  1.65840e+01 -8.89252e+00
       E -3.62172e+01  1.15317e+01 -2.40372e+00
3
# CELL(abcABC): 1322.94304  1322.94304  1322.94304    90.00000    90.00000    90.00000  Step:        4200  Bead:      25 positions{angstrom}  cell{angstrom}
       E -6.20559e+01 -2.97671e+01 -1.14409e+02
       E -6.29468e+01  1.80351e+01 -3.07044e+01
       E  6.62924e+00  1.44440e+01 -1.69662e+01
3
# CELL(abcABC): 1322.94304  1322.94304  1322.94304    90.00000    90.00000    90.00000  Step:        4300  Bead:      25 positions{angstrom}  cell{angstrom}
       E -3.39003e+01 -8.46201e+00 -7.45537e+01
       E -5.18547e+01  5.84827e+01 -3.59726e+00
       E -1.66076e+01  3.46376e+00  9.03731e+00
3
# CELL(abcABC): 1322.94304  1322.94304  1322.94304    90.00000    90.00000    90.00000  Step:        4400  Bead:      25 positions{angstrom}  cell{angstrom}
       E -7.86931e+00  1.41578e+01 -7.87595e+01
       E -5.06822e+01  4.60743e+01 -1.20221e+00
       E  1.13822e+01 -3.38790e+01  2.42555e+01
3
# CELL(abcABC): 1322.94304  1322.94304  1322.94304    90.00000    90.00000    90.00000  Step:        4500  Bead:      25 positions{angstrom}  cell{angstrom}
       E -4.60999e+01  4.50971e+00 -7.15391e+01
       E -3.89816e+01  5.57654e+01 -6.42960e+00
       E  1.29416e+01 -4.23494e+01  3.32809e+01
3
# CELL(abcABC): 1322.94304  1322.94304  1322.94304    90.00000    90.00000    90.00000  Step:        4600  Bead:      25 positions{angstrom}  cell{angstrom}
       E -5.29924e+01  3.33570e+01 -7.31784e+01
       E -6.01123e+01  5.36469e+01  1.36942e+01
       E -1.73482e+01 -4.50797e+01  2.79318e+01
3
# CELL(abcABC): 1322.94304  1322.94304  1322.94304    90.00000    90.00000    90.00000  Step:        4700  Bead:      25 positions{angstrom}  cell{angstrom}
       E -1.47119e+01  5.42088e+01 -1.04175e+02
       E -5.01788e+01  3.88656e+01 -1.98552e+01
       E -3.78378e+01 -6.29176e+01  5.04382e+01
3
# CELL(abcABC): 1322.94304  1322.94304  1322.94304    90.00000    90.00000    90.00000  Step:        4800  Bead:      25 positions{angstrom}  cell{angstrom}
       E -1.52039e+01  4.18611e+01 -8.68601e+01
       E -1.93896e+01  2.18629e+01 -1.37356e+01
       E  9.43780e+00 -4.60500e+01  2.94386e+01
3
# CELL(abcABC): 1322.94304  1322.94304  1322.94304    90.00000    90.00000    90.00000  Step:        4900  Bead:      25 positions{angstrom}  cell{angstrom}
       E  1.32512e+01  5.92491e+01 -4.24074e+01
       E -2.57590e+01 -1.98066e+01 -3.75644e+01
       E -1.35725e+01 -5.88954e+01 -1.93229e+01
3
# CELL(abcABC): 1322.94304  1322.94304  1322.94304    90.00000    90.00000    90.00000  Step:        5000  Bead:      25 positions{angstrom}  cell{angstrom}
       E  7.79253e+01  1.85993e+01  6.42557e+00
       E -4.01540e+01 -2.17531e+01 -2.29733e+01
       E -2.55798e+01 -3.08282e+01  3.73515e+00
3
# CELL(abcABC): 1322.94304  1322.94304  1322.94304    90.00000    90.00000    90.00000  Step:        5100  Bead:      25 positions{angstrom}  cell{angstrom}
       E  3.63572e+01  2.78986e+01  1.19560e+01
       E -2.35857e+01  3.70175e+00 -1.81472e+01
       E  1.58499e+01  1.71135e+00 -3.12010e+01
3
# CELL(abcABC): 1322.94304  1322.94304  1322.94304    90.00000    90.00000    90.00000  Step:        5200  Bead:      25 positions{angstrom}  cell{angstrom}
       E  2.48461e+01  4.51498e+00  4.48345e+01
       E -2.75222e+01  1.22821e+01 -2.39301e+01
       E  1.04361e+01  1.35730e+01 -1.48392e+00
3
# CELL(abcABC): 1322.94304  1322.94304  1322.94304    90.00000    90.00000    90.00000  Step:        5300  Bead:      25 positions{angstrom}  cell{angstrom}
       E  2.28898e+01 -3.12872e+01 -1.68544e+01
       E -3.49777e+01  4.46015e+00  7.24281e+00
       E -5.09418e+01  4.10960e+01  2.54441e+01
3
# CELL(abcABC): 1322.94304  1322.94304  1322.94304    90.00000    90.00000    90.00000  Step:        5400  Bead:      25 positions{angstrom}  cell{angstrom}
       E  4.24207e+01  1.57793e+01 -2.19064e+01
       E -3.60084e+01  4.09206e+01 -6.52091e+00
       E -2.29110e+01  2.82422e+01  2.89787e+01
3
# CELL(abcABC): 1322.94304  1322.94304  1322.94304    90.00000    90.00000    90.00000  Step:        5500  Bead:      25 positions{angstrom}  cell{angstrom}
       E  3.27284e+01 -1.21807e+01 -4.01069e+00
       E -2.54785e+01  1.67581e+01  8.60598e+00
       E -1.30554e+01  4.56012e+01  1.21105e+01
3
# CELL(abcABC): 1322.94304  1322.94304  1322.94304    90.00000    90.00000    90.00000  Step:        5600  Bead:      25 positions{angstrom}  cell{angstrom}
       E -6.46542e+00 -2.98397e-01 -4.37312e+01
       E -7.46724e+00  2.28952e+01  1.85927e+01
       E -9.32787e+00  2.41677e+01  6.79819e+00
3
# CELL(abcABC): 1322.94304  1322.94304  1322.94304    90.00000    90.00000    90.00000  Step:        5700  Bead:      25 positions{angstrom}  cell{angstrom}
       E  2.74957e+01  1.85001e+01 -4.70121e+01
       E  5.48582e+00  1.05775e+01 -2.12386e+01
       E -2.61142e+01 -1.20934e+01  2.02939e+01
3
# CELL(abcABC): 1322.94304  1322.94304  1322.94304    90.00000    90.00000    90.00000  Step:        5800  Bead:      25 positions{angstrom}  cell{angstrom}
       E  2.71674e+01  2.17292e+01 -7.55919e+00
       E -1.59908e+01 -2.51232e+01 -2.48416e+00
       E -1.57054e+01 -2.04737e+01 -1.50766e+01
3
# CELL(abcABC): 1322.94304  1322.94304  1322.94304    90.00000    90.00000    90.00000  Step:        5900  Bead:      25 positions{angstrom}  cell{angstrom}
       E  7.50660e+00 -6.97307e+00  1.68661e-01
       E  1.01585e+01  1.80081e+01 -2.29367e+01
       E -1.35486e+00 -4.63037e+01  9.83554e+00
3
# CELL(abcABC): 1322.94304  1322.94304  1322.94304    90.00000    90.00000    90.00000  Step:        6000  Bead:      25 positions{angstrom}  cell{angstrom}
       E -3.79816e+00 -4.50280e+01 -1.94455e+01
       E  7.86281e+00  1.31565e+01 -4.69292e+01
       E -8.16172e+00 -4.44119e+01  1.85652e+01
3
# CELL(abcABC): 1322.94304  1322.94304  1322.94304    90.00000    90.00000    90.00000  Step:        6100  Bead:      25 positions{angstrom}  cell{angstrom}
       E  1.72052e+01 -5.03680e+01 -4.87931e+01
       E  7.39541e+01 -2.17303e+01 -4.75157e+01
       E  2.97661e+01 -6.31650e+00 -8.72052e+00
3
# CELL(abcABC): 1322.94304  1322.94304  1322.94304    90.00000    90.00000    90.00000  Step:        6200  Bead:      25 positions{angstrom}  cell{angstrom}
       E  7.91720e+00 -2.34204e+01 -8.00521e+01
       E  8.71758e+01  4.33206e+01  7.19794e+00
       E -1.04418e+01 -5.43542e+01  3.84134e+01
3
# CELL(abcABC): 1322.94304  1322.94304  1322.94304    90.00000    90.00000    90.00000  Step:        6300  Bead:      25 positions{angstrom}  cell{angstrom}
       E  3.43828e+01 -7.38671e+01 -1.07857e+02
       E  7.66107e+01 -9.10646e-01 -1.74870e+01
       E  3.58046e+01 -6.86037e+01  3.09704e+01
3
# CELL(abcABC): 1322.94304  1322.94304  1322.94304    90.00000    90.00000    90.00000  Step:        6400  Bead:      25 positions{angstrom}  cell{angstrom}
       E  8.97052e+01 -7.18727e+01 -1.19414e+02
       E  2.77644e+01 -2.28175e+00 -4.40123e+01
       E  2.09939e+01 -3.58295e+01  2.19565e+00
3
# CELL(abcABC): 1322.94304  1322.94304  1322.94304    90.00000    90.00000    90.00000  Step:        6500  Bead:      25 positions{angstrom}  cell{angstrom}
       E  4.70899e+01 -9.38531e+01 -1.34317e+02
       E -2.77590e+00  2.13012e+00 -6.66591e+01
       E  1.26875e+01 -5.39272e+00 -1.63964e-01
3
# CELL(abcABC): 1322.94304  1322.94304  1322.94304    90.00000    90.00000    90.00000  Step:        6600  Bead:      25 positions{angstrom}  cell{angstrom}
       E  2.10020e+01 -9.73372e+01 -1.01263e+02
       E  4.60391e+01  2.25442e+01 -3.92604e+01
       E  6.05010e+00  1.90209e+01  8.21757e+00
3
# CELL(abcABC): 1322.94304  1322.94304  1322.94304    90.00000    90.00000    90.00000  Step:        6700  Bead:      25 positions{angstrom}  cell{angstrom}
       E  3.59984e+01 -1.03811e+02 -1.12686e+02
       E  5.49186e+01  1.95213e+01 -1.77485e+01
       E -3.33603e+01 -1.51517e+01  5.44950e+01
3
# CELL(abcABC): 1322.94304  1322.94304  1322.94304    90.00000    90.00000    90.00000  Step:        6800  Bead:      25 positions{angstrom}  cell{angstrom}
       E  3.86441e+01 -1.17329e+02 -1.03727e+02
       E  3.34934e+01 -6.12975e+00 -4.40005e+00
       E -3.58503e+01 -4.91465e+01  3.32208e+01
3
# CELL(abcABC): 1322.94304  1322.94304  1322.94304    90.00000    90.00000    90.00000  Step:        6900  Bead:      25 positions{angstrom}  cell{angstrom}
       E  3.90595e+01 -7.93784e+01 -4.00832e+01
       E  5.35901e+01 -9.49187e+00 -2.60437e+01
       E  2.41738e+00 -2.70939e+01  4.13741e+00
3
# CELL(abcABC): 1322.94304  1322.94304  1322.94304    90.00000    90.00000    90.00000  Step:        7000  Bead:      25 positions{angstrom}  cell{angstrom}
       E  4.48666e+01 -4.65295e+01 -1.32944e+01
       E  3.70133e+01  2.39853e+01 -1.87749e+01
       E  3.25731e+01  1.83187e+00 -7.50986e+01
3
# CELL(abcABC): 1322.94304  1322.94304  1322.94304    90.00000    90.00000    90.00000  Step:        7100  Bead:      25 positions{angstrom}  cell{angstrom}
       E  2.72816e+00 -4.43762e+01 -3.39151e+01
       E  1.35764e+00  3.76211e+01  2.05513e+00
       E  6.28128e+01  5.05707e+00 -1.68939e+01
3
# CELL(abcABC): 1322.94304  1322.94304  1322.94304    90.00000    90.00000    90.00000  Step:        7200  Bead:      25 positions{angstrom}  cell{angstrom}
       E -3.41654e+00 -3.53894e+01 -6.73660e+01
       E -2.26747e+01  4.56293e+01  8.60718e+00
       E  4.62758e+01  3.19934e+01 -4.49908e+01
3
# CELL(abcABC): 1322.94304  1322.94304  1322.94304    90.00000    90.00000    90.00000  Step:        7300  Bead:      25 positions{angstrom}  cell{angstrom}
       E  4.61556e+01 -1.52871e+00 -5.44581e+01
       E -3.70265e+01 -4.38070e+00 -1.40773e+01
       E  4.59163e+01  4.16971e+01  4.46544e+00
3
# CELL(abcABC): 1322.94304  1322.94304  1322.94304    90.00000    90.00000    90.00000  Step:        7400  Bead:      25 positions{angstrom}  cell{angstrom}
       E  9.91919e+00 -4.47364e+01 -4.12243e+01
       E -1.84049e+01 -1.52883e+01 -1.90508e+01
       E  6.50037e+01  1.42508e+01  6.02431e+00
3
# CELL(abcABC): 1322.94304  1322.94304  1322.94304    90.00000    90.00000    90.00000  Step:        7500  Bead:      25 positions{angstrom}  cell{angstrom}
       E -1.57077e+01 -5.51613e+01 -4.43035e+01
       E -2.22803e+01 -3.37180e+01  6.16484e+00
       E  3.79655e+01  4.20311e+01  2.09781e+01
3
# CELL(abcABC): 1322.94304  1322.94304  1322.94304    90.00000    90.00000    90.00000  Step:        7600  Bead:      25 positions{angstrom}  cell{angstrom}
       E -1.93966e+01 -9.04954e+01 -6.20583e+01
       E -9.03580e+01 -3.11378e+01  2.32427e+01
       E  4.87023e+01  3.41437e+01 -2.24919e+01
3
# CELL(abcABC): 1322.94304  1322.94304  1322.94304    90.00000    90.00000    90.00000  Step:        7700  Bead:      25 positions{angstrom}  cell{angstrom}
       E -2.15297e+01 -4.75725e+01 -6.91715e+01
       E -1.27366e+01 -4.22446e+01 -9.96873e+00
       E  6.18755e+01  9.81320e-01 -2.75156e+01
3
# CELL(abcABC): 1322.94304  1322.94304  1322.94304    90.00000    90.00000    90.00000  Step:        7800  Bead:      25 positions{angstrom}  cell{angstrom}
       E  5.83181e+00 -3.89794e+01 -3.81236e+01
       E -3.57741e+00 -2.82398e+01 -1.83884e+01
       E  7.61332e+01 -1.79277e+01 -3.14534e+01
3
# CELL(abcABC): 1322.94304  1322.94304  1322.94304    90.00000    90.00000    90.00000  Step:        7900  Bead:      25 positions{angstrom}  cell{angstrom}
       E  3.88649e+01 -3.72454e+01 -4.84390e+01
       E  1.66981e+01 -4.88413e+01 -1.65190e+01
       E  1.82156e+01 -1.61285e+01 -6.30151e+01
3
# CELL(abcABC): 1322.94304  1322.94304  1322.94304    90.00000    90.00000    90.00000  Step:        8000  Bead:      25 positions{angstrom}  cell{angstrom}
       E  1.59320e+01 -3.61310e+00 -7.62299e+00
       E -3.48282e+00 -1.19161e+01 -6.52454e+01
       E  2.00732e+01  2.72488e+00 -1.56060e+01
3
# CELL(abcABC): 1322.94304  1322.94304  1322.94304    90.00000    90.00000    90.00000  Step:        8100  Bead:      25 positions{angstrom}  cell{angstrom}
       E  3.39353e+01  6.53674e+01 -2.82937e+01
       E -5.74894e+01  2.58961e+00 -6.06151e+01
       E  1.93571e+01 -2.39614e-01  9.62586e+00
3
# CELL(abcABC): 1322.94304  1322.94304  1322.94304    90.00000    90.00000    90.00000  Step:        8200  Bead:      25 positions{angstrom}  cell{angstrom}
       E  1.55279e+01  5.31297e+01  8.86892e+00
       E  3.81318e+00  9.92447e-01 -2.45194e+01
       E -2.00231e+01 -4.05274e+01  1.15154e+01
3
# CELL(abcABC): 1322.94304  1322.94304  1322.94304    90.00000    90.00000    90.00000  Step:        8300  Bead:      25 positions{angstrom}  cell{angstrom}
       E -1.95231e+01  6.99769e+01  3.33153e+01
       E  2.39986e+01  5.65072e-01 -2.80861e+01
       E  2.09910e+01 -4.15371e+01  3.42913e+01
3
# CELL(abcABC): 1322.94304  1322.94304  1322.94304    90.00000    90.00000    90.00000  Step:        8400  Bead:      25 positions{angstrom}  cell{angstrom}
       E -2.17953e+01 -4.52735e+00  1.89719e+00
       E  8.70308e+00  3.00228e+01  3.84834e+01
       E -8.63052e+00 -5.25942e+01  6.16424e+01
3
# CELL(abcABC): 1322.94304  1322.94304  1322.94304    90.00000    90.00000    90.00000  Step:        8500  Bead:      25 positions{angstrom}  cell{angstrom}
       E -2.64519e+01 -1.11802e+01 -1.89152e+01
       E  1.37086e+01  1.84364e+01 -5.59637e+00
       E  6.37840e+00 -3.64091e+01  5.82194e+01
3
# CELL(abcABC): 1322.94304  1322.94304  1322.94304    90.00000    90.00000    90.00000  Step:        8600  Bead:      25 positions{angstrom}  cell{angstrom}
       E -1.27654e+01  8.52061e+00  1.53108e+01
       E  1.81724e+01  3.44569e+00  3.72326e+01
       E  6.78364e+01 -2.92048e+00  4.13786e+01
3
# CELL(abcABC): 1322.94304  1322.94304  1322.94304    90.00000    90.00000    90.00000  Step:        8700  Bead:      25 positions{angstrom}  cell{angstrom}
       E -5.86130e+00  3.28200e+00 -2.59541e+01
       E  1.03916e+01  9.36179e+00  4.17613e+01
       E  6.73580e+01 -1.28440e+01  1.87685e+01
3
# CELL(abcABC): 1322.94304  1322.94304  1322.94304    90.00000    90.00000    90.00000  Step:        8800  Bead:      25 positions{angstrom}  cell{angstrom}
       E -6.03071e+01  3.73457e+00  8.27785e+00
       E -2.77406e+01 -3.61500e+01  2.74534e+01
       E  4.94115e+01 -4.77666e+01  3.00003e+01
3
# CELL(abcABC): 1322.94304  1322.94304  1322.94304    90.00000    90.00000    90.00000  Step:        8900  Bead:      25 positions{angstrom}  cell{angstrom}
       E -4.24032e+01  3.37755e+01  9.01623e+00
       E  1.36158e+01 -3.00625e+01  1.43867e+01
       E  3.79109e+01 -5.34167e+01  7.62684e+00
3
# CELL(abcABC): 1322.94304  1322.94304  1322.94304    90.00000    90.00000    90.00000  Step:        9000  Bead:      25 positions{angstrom}  cell{angstrom}
       E -4.16540e+01  1.19148e+01  7.52822e+00
       E  7.01777e+00 -2.37552e+01  7.24611e+01
       E  1.57354e+01 -7.77832e+01  7.26882e+00
3
# CELL(abcABC): 1322.94304  1322.94304  1322.94304    90.00000    90.00000    90.00000  Step:        9100  Bead:      25 positions{angstrom}  cell{angstrom}
       E -4.85700e+01  1.70675e+01 -4.12821e+00
       E  1.90688e-02  5.54132e+00  3.85428e+01
       E  2.17718e+01 -7.68091e+01 -8.66878e+00
3
# CELL(abcABC): 1322.94304  1322.94304  1322.94304    90.00000    90.00000    90.00000  Step:        9200  Bead:      25 positions{angstrom}  cell{angstrom}
       E  1.68800e+01  3.89853e+01 -4.96413e+01
       E  8.21224e+00 -1.09110e+01  6.91674e+00
       E  4.79395e+01 -5.27188e+01  2.50216e+01
3
# CELL(abcABC): 1322.94304  1322.94304  1322.94304    90.00000    90.00000    90.00000  Step:        9300  Bead:      25 positions{angstrom}  cell{angstrom}
       E  2.93994e+01 -2.65427e+01 -7.15578e+01
       E -2.25455e+01 -3.96574e+01  3.00776e+01
       E  2.74248e+01 -1.77456e+01 -3.76172e-01
3
# CELL(abcABC): 1322.94304  1322.94304  1322.94304    90.00000    90.00000    90.00000  Step:        9400  Bead:      25 positions{angstrom}  cell{angstrom}
       E  4.63824e+01  2.07270e+01 -5.30996e+01
       E  4.50025e+00 -1.15273e+01  4.61943e+01
       E  1.70480e+01  1.13503e+00 -2.07262e+01
3
# CELL(abcABC): 1322.94304  1322.94304  1322.94304    90.00000    90.00000    90.00000  Step:        9500  Bead:      25 positions{angstrom}  cell{angstrom}
       E  3.66914e+01  5.46005e+01 -6.15812e+01
       E  2.13672e+01 -2.05373e+01  5.77059e+01
       E  3.43184e+01 -1.17148e+01 -1.54171e+01
3
# CELL(abcABC): 1322.94304  1322.94304  1322.94304    90.00000    90.00000    90.00000  Step:        9600  Bead:      25 positions{angstrom}  cell{angstrom}
       E  1.73448e+01 -1.52354e+01 -2.69685e+01
       E  2.25503e+01 -6.42077e+01  2.39721e+00
       E  7.79424e+00 -1.09922e+01 -6.97558e+00
3
# CELL(abcABC): 1322.94304  1322.94304  1322.94304    90.00000    90.00000    90.00000  Step:        9700  Bead:      25 positions{angstrom}  cell{angstrom}
       E -2.02579e+01 -5.26409e+01 -5.62269e+01
       E  3.34024e+01 -9.78720e+01  9.42203e+00
       E -1.14741e+00  1.37567e+01 -3.61837e+00
3
# CELL(abcABC): 1322.94304  1322.94304  1322.94304    90.00000    90.00000    90.00000  Step:        9800  Bead:      25 positions{angstrom}  cell{angstrom}
       E -6.52755e+01 -4.68547e+01 -2.15500e+01
       E  4.49706e+01 -4.39983e+01  1.26272e+00
       E -1.84192e+01 -8.69590e+00  1.35589e+01
3