3
# CELL(abcABC): 1322.94304  1322.94304  1322.94304    90.00000    90.00000    90.00000  Step:           0  Bead:      29 positions{angstrom}  cell{angstrom}
       E  0.00000e+00  0.00000e+00  0.00000e+00
       E  0.00000e+00  0.00000e+00  0.00000e+00
       E  0.00000e+00  0.00000e+00  0.00000e+00
3
# CELL(abcABC): 1322.94304  1322.94304  1322.94304    90.00000    90.00000    90.00000  Step:         100  Bead:      29 positions{angstrom}  cell{angstrom}
       E  1.54916e+01 -5.30851e+00  5.66817e+00
       E  6.35385e+00  1.37472e-01 -1.09242e+01
       E -1.26070e+01 -1.66387e+01 -1.77522e+01
3
# CELL(abcABC): 1322.94304  1322.94304  1322.94304    90.00000    90.00000    90.00000  Step:         200  Bead:      29 positions{angstrom}  cell{angstrom}
       E -1.14408e+00  1.77812e+01  3.74967e+01
       E  1.88451e+01 -1.70247e+01  1.65035e+01
       E  9.45632e+00 -2.95615e+01  2.10730e+01
3
# CELL(abcABC): 1322.94304  1322.94304  1322.94304    90.00000    90.00000    90.00000  Step:         300  Bead:      29 positions{angstrom}  cell{angstrom}
       E  2.73203e+01  6.55778e+00  2.59997e+01
       E  1.62345e+01 -2.56489e+01  1.99140e+01
       E  2.25580e+01  3.18532e+00 -1.06988e+01
3
# CELL(abcABC): 1322.94304  1322.94304  1322.94304    90.00000    90.00000    90.00000  Step:         400  Bead:      29 positions{angstrom}  cell{angstrom}
       E  1.21554e+01  1.56676e+01  9.55841e+00
       E  2.97925e+01 -1.35519e+01 -5.99337e+00
       E  2.65260e+01 -9.80490e+00 -2.17988e+01
3
# CELL(abcABC): 1322.94304  1322.94304  1322.94304    90.00000    90.00000    90.00000  Step:         500  Bead:      29 positions{angstrom}  cell{angstrom}
       E -2.89813e+00  1.18338e+01  1.35857e+01
       E  1.94340e+01  2.37018e+00  1.05209e+01
       E  2.17719e+01 -2.22089e+01 -1.37014e+01
3
# CELL(abcABC): 1322.94304  1322.94304  1322.94304    90.00000    90.00000    90.00000  Step:         600  Bead:      29 positions{angstrom}  cell{angstrom}
       E  3.44418e+00  3.04772e+00  4.57364e+01
       E -1.87494e+01 -1.41871e+01  4.12679e+01
       E  2.56235e+01  1.59011e+01  4.18520e+00
3
# CELL(abcABC): 1322.94304  1322.94304  1322.94304    90.00000    90.00000    90.00000  Step:         700  Bead:      29 positions{angstrom}  cell{angstrom}
       E -3.76468e+00  1.71410e+01  9.39497e-01
       E -3.77697e+01 -2.34894e-01  3.88362e+01
       E -3.48196e+01  3.22020e+01  1.02496e+01
3
# CELL(abcABC): 1322.94304  1322.94304  1322.94304    90.00000    90.00000    90.00000  Step:         800  Bead:      29 positions{angstrom}  cell{angstrom}
       E  4.58756e+01  2.12905e+01  1.86148e+01
       E -8.75171e+00 -3.31972e+01  4.80700e+01
       E -4.13379e+01  1.34241e+01  3.64367e+01
3
# CELL(abcABC): 1322.94304  1322.94304  1322.94304    90.00000    90.00000    90.00000  Step:         900  Bead:      29 positions{angstrom}  cell{angstrom}
       E  4.30072e+01 -3.41083e-01 -1.04044e+01
       E  3.74941e+01  3.09722e+01  2.16442e+01
       E -4.68405e+01  2.00413e+01  7.46110e+01
3
# CELL(abcABC): 1322.94304  1322.94304  1322.94304    90.00000    90.00000    90.00000  Step:        1000  Bead:      29 positions{angstrom}  cell{angstrom}
       E  1.08925e+01  1.99638e+01  5.21555e+00
       E  1.30188e+01  1.60531e+01 -2.00803e+01
       E -8.12198e-01  6.00637e+00  7.14431e+01
3
# CELL(abcABC): 1322.94304  1322.94304  1322.94304    90.00000    90.00000    90.00000  Step:        1100  Bead:      29 positions{angstrom}  cell{angstrom}
       E  3.08198e+01  3.04727e+01  1.65744e+01
       E  7.42529e+00  1.44284e+01 -4.89698e+01
       E  5.13868e+00 -2.33763e+00  3.24437e+01
3
# CELL(abcABC): 1322.94304  1322.94304  1322.94304    90.00000    90.00000    90.00000  Step:        1200  Bead:      29 positions{angstrom}  cell{angstrom}
       E -8.43710e+00  3.19743e+01 -1.72250e+01
       E  2.78430e+01  7.90043e+00 -6.65505e+01
       E  2.69304e+01  4.67336e+01  1.35893e+01
3
# CELL(abcABC): 1322.94304  1322.94304  1322.94304    90.00000    90.00000    90.00000  Step:        1300  Bead:      29 positions{angstrom}  cell{angstrom}
       E -1.39005e+01  3.15390e+01 -4.28014e+01
       E  1.44301e+01 -1.29312e+01 -6.08071e+01
       E -1.07779e+01  5.39245e+01  5.93530e+00
3
# CELL(abcABC): 1322.94304  1322.94304  1322.94304    90.00000    90.00000    90.00000  Step:        1400  Bead:      29 positions{angstrom}  cell{angstrom}
       E -4.35996e+00  5.78265e+01 -5.85801e+01
       E -1.27847e+01 -2.22589e+01 -7.24796e+01
       E -3.58304e+01  3.61359e+01  8.93646e+00
3
# CELL(abcABC): 1322.94304  1322.94304  1322.94304    90.00000    90.00000    90.00000  Step:        1500  Bead:      29 positions{angstrom}  cell{angstrom}
       E -4.02566e+01  4.16725e+01 -6.68898e+01
       E -1.81705e+01 -1.03204e+01 -5.80291e+01
       E -7.54552e+00  4.76360e+01  2.17374e+01
3
# CELL(abcABC): 1322.94304  1322.94304  1322.94304    90.00000    90.00000    90.00000  Step:        1600  Bead:      29 positions{angstrom}  cell{angstrom}
       E -3.32383e+01  8.22050e+01 -8.09658e+01
       E -4.26322e+00 -1.09187e+01  6.48634e+00
       E -1.24819e+01  3.81273e+01  8.50532e+00
3
# CELL(abcABC): 1322.94304  1322.94304  1322.94304    90.00000    90.00000    90.00000  Step:        1700  Bead:      29 positions{angstrom}  cell{angstrom}
       E -2.46755e+01  3.09550e+01 -1.31561e+01
       E -1.95047e+01 -3.43287e+01 -3.49383e+00
       E -2.08643e+01  7.01831e+00 -9.47380e+00
3
# CELL(abcABC): 1322.94304  1322.94304  1322.94304    90.00000    90.00000    90.00000  Step:        1800  Bead:      29 positions{angstrom}  cell{angstrom}
       E -3.76534e+01  4.38255e+01  2.70207e+01
       E -6.43690e+01  8.14173e+00  6.57540e+00
       E -4.33622e+01  1.95117e+01 -1.73239e+01
3
# CELL(abcABC): 1322.94304  1322.94304  1322.94304    90.00000    90.00000    90.00000  Step:        1900  Bead:      29 positions{angstrom}  cell{angstrom}
       E -3.94042e+01  6.08858e+00 -2.35354e+00
       E -5.04890e+01 -1.84654e+01 -7.06777e+00
       E -4.91056e+01  1.62735e+01  2.09778e+01
3
# CELL(abcABC): 1322.94304  1322.94304  1322.94304    90.00000    90.00000    90.00000  Step:        2000  Bead:      29 positions{angstrom}  cell{angstrom}
       E -2.76272e+01  1.26225e+01  4.41805e+01
       E -3.46013e+01 -1.64485e+01  1.10859e+00
       E -5.43252e+01  4.64398e+01  1.42142e+01
3
# CELL(abcABC): 1322.94304  1322.94304  1322.94304    90.00000    90.00000    90.00000  Step:        2100  Bead:      29 positions{angstrom}  cell{angstrom}
       E -2.45052e+01 -3.93114e+01  1.31706e+01
       E -2.14515e+01 -1.75404e+01 -3.96509e-01
       E -2.52495e+01  3.71949e+01 -3.02505e+01
3
# CELL(abcABC): 1322.94304  1322.94304  1322.94304    90.00000    90.00000    90.00000  Step:        2200  Bead:      29 positions{angstrom}  cell{angstrom}
       E -7.05854e+01 -1.30242e+01  3.71233e-01
       E -4.13255e+01  2.65019e+01  1.52842e+01
       E -2.86401e+01  2.42496e+01 -3.20567e+01
3
# CELL(abcABC): 1322.94304  1322.94304  1322.94304    90.00000    90.00000    90.00000  Step:        2300  Bead:      29 positions{angstrom}  cell{angstrom}
       E -2.49207e+01 -5.05237e-01  3.34077e+01
       E -2.02520e+01  2.96541e+00 -7.88565e-01
       E -1.35602e+01 -9.88426e+00 -6.13277e+01
3
# CELL(abcABC): 1322.94304  1322.94304  1322.94304    90.00000    90.00000    90.00000  Step:        2400  Bead:      29 positions{angstrom}  cell{angstrom}
       E -7.22632e+01  4.79895e+00  3.17819e+01
       E -3.15207e+01 -1.69190e+01 -5.79342e+00
       E  1.97643e+01 -8.64051e+00 -4.59192e+01
3
# CELL(abcABC): 1322.94304  1322.94304  1322.94304    90.00000    90.00000    90.00000  Step:        2500  Bead:      29 positions{angstrom}  cell{angstrom}
       E -5.13497e+01 -1.84624e+01  4.72469e+01
       E -4.30622e+01 -5.74697e+01 -9.57918e+00
       E  1.04916e+01 -1.74287e+01  4.83583e+01
3
# CELL(abcABC): 1322.94304  1322.94304  1322.94304    90.00000    90.00000    90.00000  Step:        2600  Bead:      29 positions{angstrom}  cell{angstrom}
       E -6.91067e+01 -1.29982e+01  8.71286e+01
       E -4.35044e+01 -6.19663e+01 -1.13212e+01
       E  2.81503e+01  8.12466e+00  7.39353e+01
3
# CELL(abcABC): 1322.94304  1322.94304  1322.94304    90.00000    90.00000    90.00000  Step:        2700  Bead:      29 positions{angstrom}  cell{angstrom}
       E -5.98913e+01 -6.39354e+01  1.02005e+02
       E -6.49312e+01 -6.75525e+01 -1.92570e+01
       E  2.32519e+01 -3.74584e+01  9.02219e+01
3
# CELL(abcABC): 1322.94304  1322.94304  1322.94304    90.00000    90.00000    90.00000  Step:        2800  Bead:      29 positions{angstrom}  cell{angstrom}
       E -5.02944e+01 -3.92737e+01  5.68394e+01
       E -4.92385e+01 -2.44375e+01  8.06752e+00
       E  2.81521e+01 -1.11672e+01  3.75589e+01
3
# CELL(abcABC): 1322.94304  1322.94304  1322.94304    90.00000    90.00000    90.00000  Step:        2900  Bead:      29 positions{angstrom}  cell{angstrom}
       E -4.30975e+01 -4.85741e+01  4.63067e+01
       E -4.30727e+01 -2.85552e+01  1.79268e+01
       E  1.82882e+01 -8.27585e+01  4.80304e+01
3
# CELL(abcABC): 1322.94304  1322.94304  1322.94304    90.00000    90.00000    90.00000  Step:        3000  Bead:      29 positions{angstrom}  cell{angstrom}
       E -2.99585e+01 -3.15370e+01  4.88886e+01
       E -3.47742e+01 -2.31041e+01  3.67029e+00
       E  3.43604e+00 -1.35691e+01 -6.18671e+00
3
# CELL(abcABC): 1322.94304  1322.94304  1322.94304    90.00000    90.00000    90.00000  Step:        3100  Bead:      29 positions{angstrom}  cell{angstrom}
       E -4.83624e+01 -6.15409e+01  3.50835e+01
       E -3.66864e+01 -6.17438e+01  5.18721e+01
       E  2.43713e+01  1.75389e+01  7.09014e+00
3
# CELL(abcABC): 1322.94304  1322.94304  1322.94304    90.00000    90.00000    90.00000  Step:        3200  Bead:      29 positions{angstrom}  cell{angstrom}
       E -4.62228e+01 -6.13513e+01  2.66463e+01
       E -6.53968e+01 -3.41596e+01  5.55108e+01
       E  2.20372e+00  3.17384e+01  1.80806e+01
3
# CELL(abcABC): 1322.94304  1322.94304  1322.94304    90.00000    90.00000    90.00000  Step:        3300  Bead:      29 positions{angstrom}  cell{angstrom}
       E -3.16307e+01  5.13799e+01  6.04664e+01
       E -8.10023e+01  3.21478e+00  5.41264e+01
       E  1.85066e+01  5.05178e+01  4.45873e+01
3
# CELL(abcABC): 1322.94304  1322.94304  1322.94304    90.00000    90.00000    90.00000  Step:        3400  Bead:      29 positions{angstrom}  cell{angstrom}
       E -8.19729e+01  4.62168e+01  8.01761e+01
       E -5.68686e+01 -2.92758e+01  2.18285e+01
       E  1.44297e+01  3.84669e+01  4.95575e+01
3
# CELL(abcABC): 1322.94304  1322.94304  1322.94304    90.00000    90.00000    90.00000  Step:        3500  Bead:      29 positions{angstrom}  cell{angstrom}
       E -6.44763e+01 -8.54833e+00  6.25172e+01
       E -6.55761e+01 -4.74750e+01  6.84427e+01
       E -2.06638e+00  3.34916e+01  7.64510e+00
3
# CELL(abcABC): 1322.94304  1322.94304  1322.94304    90.00000    90.00000    90.00000  Step:        3600  Bead:      29 positions{angstrom}  cell{angstrom}
       E -7.56212e+01 -6.15615e+01  3.74393e+01
       E -1.02981e+01 -2.06414e+01  5.98374e+01
       E -6.60967e+01  1.21617e+01 -4.60110e+00
3
# CELL(abcABC): 1322.94304  1322.94304  1322.94304    90.00000    90.00000    90.00000  Step:        3700  Bead:      29 positions{angstrom}  cell{angstrom}
       E -7.93173e+01 -3.35736e+01  5.60961e+01
       E -4.71603e+00 -4.42781e+01 -2.69179e+00
       E -6.42621e+01  1.06052e+01 -1.73945e+01
3
# CELL(abcABC): 1322.94304  1322.94304  1322.94304    90.00000    90.00000    90.00000  Step:        3800  Bead:      29 positions{angstrom}  cell{angstrom}
       E -6.23006e+01 -1.34049e+01  4.59666e+01
       E  1.91589e+01 -4.00264e+01 -1.46880e+01
       E -1.66617e+01 -2.37656e+01 -1.22168e+01
3
# CELL(abcABC): 1322.94304  1322.94304  1322.94304    90.00000    90.00000    90.00000  Step:        3900  Bead:      29 positions{angstrom}  cell{angstrom}
       E -6.28278e+01 -2.02890e+01  4.19225e+00
       E -3.88374e+01 -4.82017e+01 -1.98151e+01
       E -2.33111e+01 -3.20341e+01  2.17891e+01
3
# CELL(abcABC): 1322.94304  1322.94304  1322.94304    90.00000    90.00000    90.00000  Step:        4000  Bead:      29 positions{angstrom}  cell{angstrom}
       E -7.27969e+01 -3.39721e+01  2.00982e+01
       E -3.03328e+01  8.09731e-01 -2.13561e+00
       E -1.42809e+01 -2.37653e+01 -1.19446e+01
3
# CELL(abcABC): 1322.94304  1322.94304  1322.94304    90.00000    90.00000    90.00000  Step:        4100  Bead:      29 positions{angstrom}  cell{angstrom}
       E -7.16042e+01 -3.36343e+01 -4.05947e+01
       E -6.97521e+01  6.99446e+00  2.66325e+00
       E -5.41427e+01 -1.52232e+01 -1.40340e+01
3
# CELL(abcABC): 1322.94304  1322.94304  1322.94304    90.00000    90.00000    90.00000  Step:        4200  Bead:      29 positions{angstrom}  cell{angstrom}
       E -4.47282e+01  9.01610e+00 -7.82849e+01
       E -3.53938e+01  1.60030e+01 -3.01068e+01
       E -4.59773e+01 -2.54519e+00 -1.57355e+01
3
# CELL(abcABC): 1322.94304  1322.94304  1322.94304    90.00000    90.00000    90.00000  Step:        4300  Bead:      29 positions{angstrom}  cell{angstrom}
       E -5.74885e+01  1.95042e+01 -9.71061e+01
       E -2.30015e+01  4.82071e+01 -2.81677e+01
       E -1.48002e+01  7.82813e+00 -1.15760e+01
3
# CELL(abcABC): 1322.94304  1322.94304  1322.94304    90.00000    90.00000    90.00000  Step:        4400  Bead:      29 positions{angstrom}  cell{angstrom}
       E  5.08468e-01  2.48153e+01 -9.71693e+01
       E -5.57757e+01  4.53184e+01  9.26787e+00
       E -1.69324e+01 -2.10087e+01  2.08144e+01
3
# CELL(abcABC): 1322.94304  1322.94304  1322.94304    90.00000    90.00000    90.00000  Step:        4500  Bead:      29 positions{angstrom}  cell{angstrom}
       E -4.60337e+01  5.79276e+00 -9.43516e+01
       E -5.26037e+01  4.10544e+01  6.73311e-01
       E -8.81405e-02 -3.39099e+01  1.05223e+01
3
# CELL(abcABC): 1322.94304  1322.94304  1322.94304    90.00000    90.00000    90.00000  Step:        4600  Bead:      29 positions{angstrom}  cell{angstrom}
       E -3.60979e+01  1.88073e+01 -5.35447e+01
       E -7.49273e+01  8.02293e+01  8.20710e+00
       E -1.07162e+01 -3.92627e+01  3.01872e+01
3
# CELL(abcABC): 1322.94304  1322.94304  1322.94304    90.00000    90.00000    90.00000  Step:        4700  Bead:      29 positions{angstrom}  cell{angstrom}
       E -2.39434e+01  2.40145e+01 -6.25220e+01
       E -4.28438e+01  1.67902e+01 -2.17338e+01
       E  3.19476e+00 -3.65638e+01  1.39825e+01
3
# CELL(abcABC): 1322.94304  1322.94304  1322.94304    90.00000    90.00000    90.00000  Step:        4800  Bead:      29 positions{angstrom}  cell{angstrom}
       E  1.12741e+01  4.17043e+01 -8.63871e+01
       E -4.22885e+01 -9.13067e+00 -2.62283e+01
       E -1.82926e+01 -3.72175e+01 -8.24818e-01
3
# CELL(abcABC): 1322.94304  1322.94304  1322.94304    90.00000    90.00000    90.00000  Step:        4900  Bead:      29 positions{angstrom}  cell{angstrom}
       E  2.75459e+01  5.30955e+01 -4.21616e+01
       E -5.44506e+01 -8.00454e+00 -3.96049e+01
       E  1.33477e+01 -6.38789e+01  1.84799e+00
3
# CELL(abcABC): 1322.94304  1322.94304  1322.94304    90.00000    90.00000    90.00000  Step:        5000  Bead:      29 positions{angstrom}  cell{angstrom}
       E  9.17823e+01  3.46521e+01 -4.39134e+01
       E -6.98846e+01 -2.49511e+01 -2.05071e+01
       E  3.06965e+01 -4.15248e+01 -3.64462e+00
3
# CELL(abcABC): 1322.94304  1322.94304  1322.94304    90.00000    90.00000    90.00000  Step:        5100  Bead:      29 positions{angstrom}  cell{angstrom}
       E  8.06191e+01  6.17275e+01  1.45765e+01
       E -4.23757e+01 -7.33518e+00 -1.71388e+01
       E  1.73558e+01 -1.02975e+01 -6.36758e+00
3
# CELL(abcABC): 1322.94304  1322.94304  1322.94304    90.00000    90.00000    90.00000  Step:        5200  Bead:      29 positions{angstrom}  cell{angstrom}
       E  3.62710e+01  1.66329e+01 -2.08897e+01
       E -6.23023e+01  2.41782e+01 -5.33516e+00
       E  4.37453e+00  3.68791e+00 -3.78436e+01
3
# CELL(abcABC): 1322.94304  1322.94304  1322.94304    90.00000    90.00000    90.00000  Step:        5300  Bead:      29 positions{angstrom}  cell{angstrom}
       E  4.18556e+01 -1.69484e+01 -1.58212e+01
       E -4.36025e+01  1.18772e+01 -9.98599e-01
       E -2.94596e+01  3.82102e+01  1.98648e+01
3
# CELL(abcABC): 1322.94304  1322.94304  1322.94304    90.00000    90.00000    90.00000  Step:        5400  Bead:      29 positions{angstrom}  cell{angstrom}
       E  1.04668e+00  1.79853e+01 -1.24329e+01
       E -5.98820e+01  4.76116e+01 -3.02181e+01
       E -1.70589e+01  4.17479e+01  2.71115e+01
3
# CELL(abcABC): 1322.94304  1322.94304  1322.94304    90.00000    90.00000    90.00000  Step:        5500  Bead:      29 positions{angstrom}  cell{angstrom}
       E  1.84745e+01  3.99544e+01 -6.78479e+00
       E -3.05921e+00 -1.70649e+00 -1.64470e+01
       E  1.13357e+01  4.13705e+01  1.13926e+00
3
# CELL(abcABC): 1322.94304  1322.94304  1322.94304    90.00000    90.00000    90.00000  Step:        5600  Bead:      29 positions{angstrom}  cell{angstrom}
       E  2.51844e+01  1.68757e+01  1.23871e+00
       E -1.81436e+01  2.20990e+01 -2.15890e+00
       E -5.65870e+00 -5.08133e+00 -1.33069e+00
3
# CELL(abcABC): 1322.94304  1322.94304  1322.94304    90.00000    90.00000    90.00000  Step:        5700  Bead:      29 positions{angstrom}  cell{angstrom}
       E  2.18186e+01  6.67648e+00 -2.46626e+01
       E  1.29854e+01  2.56822e+01  6.86366e+00
       E -1.84305e+01 -1.17704e+01  2.67588e+01
3
# CELL(abcABC): 1322.94304  1322.94304  1322.94304    90.00000    90.00000    90.00000  Step:        5800  Bead:      29 positions{angstrom}  cell{angstrom}
       E  8.86475e+00  1.42297e+01 -9.17921e+00
       E  1.53633e+00  6.97754e+00 -1.46334e+01
       E -7.84909e+00 -4.92729e+01 -3.28138e+01
3
# CELL(abcABC): 1322.94304  1322.94304  1322.94304    90.00000    90.00000    90.00000  Step:        5900  Bead:      29 positions{angstrom}  cell{angstrom}
       E  3.39406e+00  1.30804e+01  2.43023e+01
       E -9.87269e+00  2.40821e+01 -1.96902e+01
       E  4.42168e+00 -4.02339e+01  1.21436e+01
3
# CELL(abcABC): 1322.94304  1322.94304  1322.94304    90.00000    90.00000    90.00000  Step:        6000  Bead:      29 positions{angstrom}  cell{angstrom}
       E  9.59182e+00 -1.15259e+01 -9.06730e+00
       E  1.57253e+01  1.71662e+00 -4.69430e+01
       E  1.10849e+01 -3.51082e+01 -2.43862e+01
3
# CELL(abcABC): 1322.94304  1322.94304  1322.94304    90.00000    90.00000    90.00000  Step:        6100  Bead:      29 positions{angstrom}  cell{angstrom}
       E  1.15457e+01 -6.35089e+01 -4.31230e+01
       E  2.28732e+01 -1.42487e+01 -4.29167e+01
       E  2.86552e+01 -2.48643e+01 -1.23821e+01
3
# CELL(abcABC): 1322.94304  1322.94304  1322.94304    90.00000    90.00000    90.00000  Step:        6200  Bead:      29 positions{angstrom}  cell{angstrom}
       E  2.56886e+01 -7.62729e+01 -6.40542e+01
       E  5.62693e+01 -2.27468e+01 -2.00037e+01
       E -1.51295e+01 -3.96957e+01  2.76489e+01
3
# CELL(abcABC): 1322.94304  1322.94304  1322.94304    90.00000    90.00000    90.00000  Step:        6300  Bead:      29 positions{angstrom}  cell{angstrom}
       E  4.12312e+01 -8.30695e+01 -1.19497e+02
       E  5.75182e+01 -3.07288e+01 -1.47346e+01
       E -2.05249e+00 -4.22568e+01  1.00511e+01
3
# CELL(abcABC): 1322.94304  1322.94304  1322.94304    90.00000    90.00000    90.00000  Step:        6400  Bead:      29 positions{angstrom}  cell{angstrom}
       E  4.54189e+01 -8.88382e+01 -1.17620e+02
       E  3.47879e+01 -3.73316e+01 -4.76546e+01
       E -4.94228e+00 -2.08986e+01  8.80722e+00
3
# CELL(abcABC): 1322.94304  1322.94304  1322.94304    90.00000    90.00000    90.00000  Step:        6500  Bead:      29 positions{angstrom}  cell{angstrom}
       E  5.42852e+01 -1.07963e+02 -1.22321e+02
       E  3.98513e+00  1.76021e+01 -3.84719e+01
       E -1.29152e+01  2.37985e+00 -1.23777e+01
3
# CELL(abcABC): 1322.94304  1322.94304  1322.94304    90.00000    90.00000    90.00000  Step:        6600  Bead:      29 positions{angstrom}  cell{angstrom}
       E  2.15438e+01 -1.05258e+02 -1.26904e+02
       E  3.77379e+01  7.16811e+00 -1.88229e+01
       E  1.02089e+01 -2.73181e+01  8.95552e+00
3
# CELL(abcABC): 1322.94304  1322.94304  1322.94304    90.00000    90.00000    90.00000  Step:        6700  Bead:      29 positions{angstrom}  cell{angstrom}
       E  4.40479e+01 -8.91603e+01 -1.27566e+02
       E  5.64875e+01  3.63385e+00 -2.65718e+01
       E -3.68624e+01 -2.31935e+01  1.73896e+01
3
# CELL(abcABC): 1322.94304  1322.94304  1322.94304    90.00000    90.00000    90.00000  Step:        6800  Bead:      29 positions{angstrom}  cell{angstrom}
       E  9.95910e+00 -1.07829e+02 -7.87976e+01
       E  2.90223e+01  8.98444e+00 -2.71621e+01
       E -1.04147e+01 -3.85664e+01  5.29139e+01
3
# CELL(abcABC): 1322.94304  1322.94304  1322.94304    90.00000    90.00000    90.00000  Step:        6900  Bead:      29 positions{angstrom}  cell{angstrom}
       E  9.27576e+00 -9.66194e+01 -3.59247e+01
       E  2.98268e+01 -3.56885e+01 -1.26801e+01
       E  1.63425e+01 -4.81855e+00  1.43763e+01
3
# CELL(abcABC): 1322.94304  1322.94304  1322.94304    90.00000    90.00000    90.00000  Step:        7000  Bead:      29 positions{angstrom}  cell{angstrom}
       E  4.15554e+01 -6.36167e+01 -4.27111e+01
       E  3.86272e+01  4.15840e+01 -1.63258e+01
       E  1.14122e+01 -4.45732e+00  2.75717e+01
3
# CELL(abcABC): 1322.94304  1322.94304  1322.94304    90.00000    90.00000    90.00000  Step:        7100  Bead:      29 positions{angstrom}  cell{angstrom}
       E -1.41297e+01 -2.66575e+01 -5.21107e+01
       E  5.19810e+00  5.35543e+01  2.74782e+01
       E  6.03239e+01  2.97173e+01 -1.29179e+01
3
# CELL(abcABC): 1322.94304  1322.94304  1322.94304    90.00000    90.00000    90.00000  Step:        7200  Bead:      29 positions{angstrom}  cell{angstrom}
       E -5.58834e+00 -3.13598e+01 -6.53182e+01
       E -1.36570e+01  3.08066e+01  2.15579e+01
       E  2.86319e+01  4.14817e+01  4.17579e-02
3
# CELL(abcABC): 1322.94304  1322.94304  1322.94304    90.00000    90.00000    90.00000  Step:        7300  Bead:      29 positions{angstrom}  cell{angstrom}
       E  3.23932e+01  1.53958e+01 -6.29064e+01
       E -3.17333e+01  2.27403e+01  1.32375e+01
       E  6.62070e+01  4.06566e+01 -3.09674e+01
3
# CELL(abcABC): 1322.94304  1322.94304  1322.94304    90.00000    90.00000    90.00000  Step:        7400  Bead:      29 positions{angstrom}  cell{angstrom}
       E -3.70854e+00 -5.65503e+00 -2.99677e+01
       E -9.46386e+00  3.08887e+01  8.97886e+00
       E  6.46265e+01  4.32864e+01 -2.84686e+01
3
# CELL(abcABC): 1322.94304  1322.94304  1322.94304    90.00000    90.00000    90.00000  Step:        7500  Bead:      29 positions{angstrom}  cell{angstrom}
       E -1.82401e+01 -2.29799e+01 -2.09580e+01
       E -1.02613e+01  4.91439e+00  1.76643e+01
       E  4.85038e+01  7.69618e+01 -1.95223e+01
3
# CELL(abcABC): 1322.94304  1322.94304  1322.94304    90.00000    90.00000    90.00000  Step:        7600  Bead:      29 positions{angstrom}  cell{angstrom}
       E -1.66299e+01 -5.63231e+01 -3.97980e+01
       E -5.62407e+01 -2.72073e+01  1.58534e+00
       E  3.80606e+01  4.94591e+01 -3.25799e+01
3
# CELL(abcABC): 1322.94304  1322.94304  1322.94304    90.00000    90.00000    90.00000  Step:        7700  Bead:      29 positions{angstrom}  cell{angstrom}
       E  3.10019e+00 -5.27050e+01 -4.36783e+01
       E  1.45355e+01 -6.45551e+01 -7.10514e+00
       E  5.22537e+01  2.76026e+01 -2.79517e+01
3
# CELL(abcABC): 1322.94304  1322.94304  1322.94304    90.00000    90.00000    90.00000  Step:        7800  Bead:      29 positions{angstrom}  cell{angstrom}
       E  8.27678e-01 -5.26287e+01 -1.70020e+01
       E  1.51621e+01 -5.19553e+01 -3.34586e+01
       E  7.17880e+01  1.52790e+01 -3.57254e+01
3
# CELL(abcABC): 1322.94304  1322.94304  1322.94304    90.00000    90.00000    90.00000  Step:        7900  Bead:      29 positions{angstrom}  cell{angstrom}
       E  8.63731e+00 -2.43036e+01 -1.68328e+01
       E  1.57907e+01 -4.78469e+01 -3.17217e+01
       E  5.99358e+01  1.88078e+01 -5.65283e+01
3
# CELL(abcABC): 1322.94304  1322.94304  1322.94304    90.00000    90.00000    90.00000  Step:        8000  Bead:      29 positions{angstrom}  cell{angstrom}
       E  1.72699e+01  1.28580e+01 -3.14815e+01
       E  3.05765e+00 -3.70161e+01 -6.50199e+01
       E  5.12192e+01 -1.44584e+01 -1.84469e+01
3
# CELL(abcABC): 1322.94304  1322.94304  1322.94304    90.00000    90.00000    90.00000  Step:        8100  Bead:      29 positions{angstrom}  cell{angstrom}
       E  3.68688e+01  4.83061e+01 -6.16776e+00
       E -2.24346e+01  5.54469e+00 -6.99704e+01
       E  1.39960e+01 -1.11501e+01  8.16674e+00
3
# CELL(abcABC): 1322.94304  1322.94304  1322.94304    90.00000    90.00000    90.00000  Step:        8200  Bead:      29 positions{angstrom}  cell{angstrom}
       E  4.27202e+01  5.01820e+01  2.69809e+01
       E -6.05069e-03  4.50602e+01 -2.73742e+01
       E -1.15036e+01 -8.83360e+00  2.16682e+00
3
# CELL(abcABC): 1322.94304  1322.94304  1322.94304    90.00000    90.00000    90.00000  Step:        8300  Bead:      29 positions{angstrom}  cell{angstrom}
       E  3.27127e+01  6.50743e+01 -2.19661e+01
       E  2.72723e+01  2.57429e+01 -2.09208e+01
       E  1.68141e+01 -1.64145e+01  1.17797e+01
3
# CELL(abcABC): 1322.94304  1322.94304  1322.94304    90.00000    90.00000    90.00000  Step:        8400  Bead:      29 positions{angstrom}  cell{angstrom}
       E  2.17489e+01 -2.10529e+01  4.73600e+00
       E -8.16016e-02  1.83920e+01  2.65202e+01
       E  2.78738e-01 -3.52003e+01  5.18292e+01
3
# CELL(abcABC): 1322.94304  1322.94304  1322.94304    90.00000    90.00000    90.00000  Step:        8500  Bead:      29 positions{angstrom}  cell{angstrom}
       E  1.96926e+01  1.78356e+01 -2.39431e+01
       E -2.63747e+00  1.91613e+01 -1.64773e+00
       E  2.03181e+01 -1.74319e+01  4.44119e+01
3
# CELL(abcABC): 1322.94304  1322.94304  1322.94304    90.00000    90.00000    90.00000  Step:        8600  Bead:      29 positions{angstrom}  cell{angstrom}
       E -1.94489e+01 -1.05495e+01 -3.80857e+00
       E  2.04326e+01 -8.16298e+00  1.17010e+01
       E  5.15662e+01  2.76899e+01  3.15766e+01
3
# CELL(abcABC): 1322.94304  1322.94304  1322.94304    90.00000    90.00000    90.00000  Step:        8700  Bead:      29 positions{angstrom}  cell{angstrom}
       E -5.25416e+01  2.26798e+01 -1.14289e+01
       E  2.14131e+01 -5.43154e+00  3.02705e+01
       E  7.36987e+01 -2.03035e+01  1.93312e+01
3
# CELL(abcABC): 1322.94304  1322.94304  1322.94304    90.00000    90.00000    90.00000  Step:        8800  Bead:      29 positions{angstrom}  cell{angstrom}
       E -4.00098e+01  2.56898e+01 -5.60842e+00
       E  8.26748e+00 -3.98694e+01  3.80269e+01
       E  4.50915e+01 -9.20613e+01  2.87490e+01
3
# CELL(abcABC): 1322.94304  1322.94304  1322.94304    90.00000    90.00000    90.00000  Step:        8900  Bead:      29 positions{angstrom}  cell{angstrom}
       E -2.99602e+01  5.37366e+01 -1.57146e+00
       E -3.31738e+01 -3.52199e+01  3.96844e+01
       E  1.55957e+01 -7.44816e+01  1.14594e+01
3
# CELL(abcABC): 1322.94304  1322.94304  1322.94304    90.00000    90.00000    90.00000  Step:        9000  Bead:      29 positions{angstrom}  cell{angstrom}
       E -1.33522e+01  4.89473e+01  1.71429e+01
       E -4.98060e+01 -6.01532e+01  5.18833e+01
       E  6.98018e+00 -4.11981e+01  1.42468e-01
3
# CELL(abcABC): 1322.94304  1322.94304  1322.94304    90.00000    90.00000    90.00000  Step:        9100  Bead:      29 positions{angstrom}  cell{angstrom}
       E  3.33727e+00  5.42190e+01  2.22924e+01
       E -2.72086e+01 -1.31578e+00  5.07471e+01
       E  1.58217e+01 -8.77151e+01 -9.87948e+00
3
# CELL(abcABC): 1322.94304  1322.94304  1322.94304    90.00000    90.00000    90.00000  Step:        9200  Bead:      29 positions{angstrom}  cell{angstrom}
       E -1.31417e+01  4.24600e+01 -1.15913e+01
       E -3.70881e+01 -6.35224e+00  2.65522e+01
       E  3.54713e+01 -5.11001e+01  1.40412e+01
3
# CELL(abcABC): 1322.94304  1322.94304  1322.94304    90.00000    90.00000    90.00000  Step:        9300  Bead:      29 positions{angstrom}  cell{angstrom}
       E  4.00851e+01  1.72467e+01 -5.30112e+01
       E  1.11811e+01 -2.67592e+01  5.77788e+01
       E  5.28041e+01 -8.21611e+00  5.60655e-02
3
# CELL(abcABC): 1322.94304  1322.94304  1322.94304    90.00000    90.00000    90.00000  Step:        9400  Bead:      29 positions{angstrom}  cell{angstrom}
       E  3.60800e+01  2.92372e+01 -4.71964e+01
       E -1.43833e+01 -5.90604e+01  1.67189e+01
       E  3.47200e+01 -2.96437e+00 -4.88255e+00
3
# CELL(abcABC): 1322.94304  1322.94304  1322.94304    90.00000    90.00000    90.00000  Step:        9500  Bead:      29 positions{angstrom}  cell{angstrom}
       E  3.65378e+01 -1.98396e+00 -2.72067e+01
       E  3.62774e+00 -3.84920e+01  1.37205e+01
       E  1.69929e+01 -1.56372e+01 -1.82956e+01
3
# CELL(abcABC): 1322.94304  1322.94304  1322.94304    90.00000    90.00000    90.00000  Step:        9600  Bead:      29 positions{angstrom}  cell{angstrom}
       E -1.47829e+01 -1.78164e+01 -4.09886e+01
       E  3.30019e+01 -2.02390e+01  2.44252e+01
       E  1.03105e+01 -2.03215e+01 -1.40201e+00
3
# CELL(abcABC): 1322.94304  1322.94304  1322.94304    90.00000    90.00000    90.00000  Step:        9700  Bead:      29 positions{angstrom}  cell{angstrom}
       E -3.03626e+01 -5.83108e+01 -5.89883e+01
       E  5.30654e+01 -6.23519e+01 -2.53853e+01
       E -3.14181e+01  1.52549e+00 -1.65703e+01
3
# CELL(abcABC): 1322.94304  1322.94304  1322.94304    90.00000    90.00000    90.00000  Step:        9800  Bead:      29 positions{angstrom}  cell{angstrom}
       E -1.87863e+01 -4.31247e+01 -5.17007e+01
       E  4.31254e+01 -6.67632e+01 -3.07545e+00
       E -5.25929e+01 -3.02493e+01 -1.24582e+00
3