3
# CELL(abcABC): 1322.94304  1322.94304  1322.94304    90.00000    90.00000    90.00000  Step:           0  Bead:       2 positions{angstrom}  cell{angstrom}
       E  0.00000e+00  0.00000e+00  0.00000e+00
       E  0.00000e+00  0.00000e+00  0.00000e+00
       E  0.00000e+00  0.00000e+00  0.00000e+00
3
# CELL(abcABC): 1322.94304  1322.94304  1322.94304    90.00000    90.00000    90.00000  Step:         100  Bead:       2 positions{angstrom}  cell{angstrom}
       E -3.52665e+01 -4.95165e+01 -9.83182e+00
       E  3.46983e+00 -6.22502e-01  1.38973e+00
       E -1.54574e+01  3.98975e+00  1.57453e+01
3
# CELL(abcABC): 1322.94304  1322.94304  1322.94304    90.00000    90.00000    90.00000  Step:         200  Bead:       2 positions{angstrom}  cell{angstrom}
       E -2.35230e+01 -2.00307e+01 -3.01085e+00
       E  3.63462e+01  8.54815e+00 -6.55806e+00
       E  2.86317e+00  1.78974e+01  3.90342e+01
3
# CELL(abcABC): 1322.94304  1322.94304  1322.94304    90.00000    90.00000    90.00000  Step:         300  Bead:       2 positions{angstrom}  cell{angstrom}
       E  1.94580e+01  1.35783e+00 -4.68692e+01
       E  1.68029e+00 -1.75792e+00  1.15189e+01
       E -1.82046e+01  3.47779e+01  3.74110e+01
3
# CELL(abcABC): 1322.94304  1322.94304  1322.94304    90.00000    90.00000    90.00000  Step:         400  Bead:       2 positions{angstrom}  cell{angstrom}
       E  3.73091e+01 -5.85271e+00 -2.31924e+01
       E  1.38516e+01  3.34013e+00  4.08104e+01
       E -8.40969e+00  3.44039e+01  3.22448e+01
3
# CELL(abcABC): 1322.94304  1322.94304  1322.94304    90.00000    90.00000    90.00000  Step:         500  Bead:       2 positions{angstrom}  cell{angstrom}
       E -1.49943e+00 -5.75066e+00 -2.15367e+01
       E  3.16026e+01  5.02682e+00  2.87380e+01
       E -8.16286e+00  3.08021e+01  1.76383e+01
3
# CELL(abcABC): 1322.94304  1322.94304  1322.94304    90.00000    90.00000    90.00000  Step:         600  Bead:       2 positions{angstrom}  cell{angstrom}
       E -6.22065e-01  1.76390e+01 -4.81333e+01
       E -2.66260e+01 -1.64284e+00  3.05027e+01
       E -8.34988e+00  2.75861e+01  3.59466e+01
3
# CELL(abcABC): 1322.94304  1322.94304  1322.94304    90.00000    90.00000    90.00000  Step:         700  Bead:       2 positions{angstrom}  cell{angstrom}
       E -5.87832e+00  2.11861e+01 -1.35428e+01
       E -2.17397e+01 -6.84169e+00  3.54871e+01
       E  3.41803e-01  7.69284e+00  4.13256e+01
3
# CELL(abcABC): 1322.94304  1322.94304  1322.94304    90.00000    90.00000    90.00000  Step:         800  Bead:       2 positions{angstrom}  cell{angstrom}
       E  6.47019e-01  3.35093e+01 -3.23243e+00
       E -1.77209e+00  1.75833e+00  1.85920e+01
       E -3.26974e+01  4.51084e+01  2.85402e+01
3
# CELL(abcABC): 1322.94304  1322.94304  1322.94304    90.00000    90.00000    90.00000  Step:         900  Bead:       2 positions{angstrom}  cell{angstrom}
       E  1.28757e+01  2.45601e+00 -2.37839e+00
       E  3.54934e+01 -2.65342e+00  2.08745e+01
       E -6.06813e+01  3.27444e+01  7.44360e+01
3
# CELL(abcABC): 1322.94304  1322.94304  1322.94304    90.00000    90.00000    90.00000  Step:        1000  Bead:       2 positions{angstrom}  cell{angstrom}
       E  1.72568e+00 -2.69743e+01 -2.97160e+01
       E  1.99735e+01  1.62795e+01 -1.83507e+01
       E -1.78462e+01 -7.43424e+00  9.91321e+01
3
# CELL(abcABC): 1322.94304  1322.94304  1322.94304    90.00000    90.00000    90.00000  Step:        1100  Bead:       2 positions{angstrom}  cell{angstrom}
       E  7.67170e+00  4.80233e+01 -4.71243e+01
       E  4.43316e+01 -1.40157e+01 -4.34197e+01
       E -2.77898e+01 -1.49385e+01  5.45542e+01
3
# CELL(abcABC): 1322.94304  1322.94304  1322.94304    90.00000    90.00000    90.00000  Step:        1200  Bead:       2 positions{angstrom}  cell{angstrom}
       E  1.42117e+01  4.58867e+01 -4.59499e+01
       E  2.40733e+01  6.16034e+00 -5.57108e+01
       E  3.70015e+00  1.40385e+01  1.27206e+01
3
# CELL(abcABC): 1322.94304  1322.94304  1322.94304    90.00000    90.00000    90.00000  Step:        1300  Bead:       2 positions{angstrom}  cell{angstrom}
       E  1.67643e+01  2.14877e+01 -6.10797e+01
       E  3.39344e-01 -8.37582e+01 -2.91540e+01
       E -1.60877e+01  3.81656e+01  2.23513e+01
3
# CELL(abcABC): 1322.94304  1322.94304  1322.94304    90.00000    90.00000    90.00000  Step:        1400  Bead:       2 positions{angstrom}  cell{angstrom}
       E -2.42538e+01  4.48200e+00 -3.01964e+01
       E -2.34827e+01 -2.21636e+01 -5.43618e+01
       E -4.67145e+01  3.71765e+01  2.25717e+01
3
# CELL(abcABC): 1322.94304  1322.94304  1322.94304    90.00000    90.00000    90.00000  Step:        1500  Bead:       2 positions{angstrom}  cell{angstrom}
       E -5.44274e+01  3.48482e+01 -4.34438e+01
       E -2.03485e+01 -3.44100e+01 -4.04990e+01
       E -1.29548e+01  2.79151e+01  1.18110e+01
3
# CELL(abcABC): 1322.94304  1322.94304  1322.94304    90.00000    90.00000    90.00000  Step:        1600  Bead:       2 positions{angstrom}  cell{angstrom}
       E -2.59547e+01  2.24770e+01 -4.31637e+01
       E -4.89376e+00 -3.22256e+01 -1.05738e+01
       E -2.02612e+01  6.38466e+01  2.50269e+01
3
# CELL(abcABC): 1322.94304  1322.94304  1322.94304    90.00000    90.00000    90.00000  Step:        1700  Bead:       2 positions{angstrom}  cell{angstrom}
       E -5.47165e+01  1.39423e+01 -1.85472e+01
       E -6.51648e+00 -9.52429e+00 -8.58128e+00
       E -1.19419e+01  7.68949e+01  2.15200e+01
3
# CELL(abcABC): 1322.94304  1322.94304  1322.94304    90.00000    90.00000    90.00000  Step:        1800  Bead:       2 positions{angstrom}  cell{angstrom}
       E -5.51587e+01  2.25050e+00  2.32200e+01
       E -5.49254e+01 -1.11964e+00  7.15017e+00
       E -3.09836e+01  6.60982e+01  2.36039e+01
3
# CELL(abcABC): 1322.94304  1322.94304  1322.94304    90.00000    90.00000    90.00000  Step:        1900  Bead:       2 positions{angstrom}  cell{angstrom}
       E -3.26228e+01  1.72921e+01  6.54037e+00
       E -4.30108e+01 -2.03480e+01 -3.31156e+01
       E -6.93737e+01  4.32519e+01  2.88058e+01
3
# CELL(abcABC): 1322.94304  1322.94304  1322.94304    90.00000    90.00000    90.00000  Step:        2000  Bead:       2 positions{angstrom}  cell{angstrom}
       E -2.39324e+01  2.84804e+00  1.17860e+01
       E -2.08692e+01 -1.33528e+01  2.73361e+01
       E -5.88863e+01  4.26411e+01  2.65573e+01
3
# CELL(abcABC): 1322.94304  1322.94304  1322.94304    90.00000    90.00000    90.00000  Step:        2100  Bead:       2 positions{angstrom}  cell{angstrom}
       E -1.71404e+01 -2.64631e+01 -6.32829e+00
       E -4.31831e+01 -2.39095e+01  8.19928e-01
       E -5.55734e+01  3.97645e-01  4.24977e+01
3
# CELL(abcABC): 1322.94304  1322.94304  1322.94304    90.00000    90.00000    90.00000  Step:        2200  Bead:       2 positions{angstrom}  cell{angstrom}
       E  2.48762e+00  3.56254e+00  1.18736e+01
       E -5.63209e+01 -2.08999e+01 -2.88339e-01
       E -5.66196e+01 -2.11734e+01  4.35293e+01
3
# CELL(abcABC): 1322.94304  1322.94304  1322.94304    90.00000    90.00000    90.00000  Step:        2300  Bead:       2 positions{angstrom}  cell{angstrom}
       E  2.50966e+01 -9.61103e+00  4.27075e+00
       E -3.25071e+01 -1.47186e+01 -2.82206e+01
       E -2.83826e+01  2.61935e+01  2.45547e+01
3
# CELL(abcABC): 1322.94304  1322.94304  1322.94304    90.00000    90.00000    90.00000  Step:        2400  Bead:       2 positions{angstrom}  cell{angstrom}
       E -6.60289e+00 -8.22826e-01  1.19648e+01
       E  2.27163e+00 -4.68159e+01 -2.22684e+01
       E -1.37933e+01  1.47984e+01  4.81170e+01
3
# CELL(abcABC): 1322.94304  1322.94304  1322.94304    90.00000    90.00000    90.00000  Step:        2500  Bead:       2 positions{angstrom}  cell{angstrom}
       E  2.26120e+01 -5.95899e+00  3.16291e+01
       E -5.94026e+00 -9.56293e+00 -2.67823e+01
       E -4.44675e+01 -4.18490e+01  7.25998e+01
3
# CELL(abcABC): 1322.94304  1322.94304  1322.94304    90.00000    90.00000    90.00000  Step:        2600  Bead:       2 positions{angstrom}  cell{angstrom}
       E  2.94512e+01 -2.46594e+01  7.26580e+01
       E -2.97124e+01 -3.77417e+01 -3.90082e+01
       E -2.85776e+01 -5.01764e+01  5.37796e+01
3
# CELL(abcABC): 1322.94304  1322.94304  1322.94304    90.00000    90.00000    90.00000  Step:        2700  Bead:       2 positions{angstrom}  cell{angstrom}
       E  7.44495e+00  3.12820e+00  5.04133e+01
       E -5.80814e+01 -5.62184e+01 -1.37384e+01
       E -2.59353e+01 -8.65641e+00  8.56131e+01
3
# CELL(abcABC): 1322.94304  1322.94304  1322.94304    90.00000    90.00000    90.00000  Step:        2800  Bead:       2 positions{angstrom}  cell{angstrom}
       E  3.59921e+01 -5.24290e+01  2.94614e+01
       E -4.96636e+01 -2.85162e+01 -3.07416e+01
       E -3.01354e+01 -3.74801e+00  6.19270e+01
3
# CELL(abcABC): 1322.94304  1322.94304  1322.94304    90.00000    90.00000    90.00000  Step:        2900  Bead:       2 positions{angstrom}  cell{angstrom}
       E -3.01091e+01 -4.83686e+01  2.44034e+01
       E -2.45206e+01 -4.95618e+01  7.27779e+00
       E -3.27347e+00 -4.15017e+01  6.76169e+01
3
# CELL(abcABC): 1322.94304  1322.94304  1322.94304    90.00000    90.00000    90.00000  Step:        3000  Bead:       2 positions{angstrom}  cell{angstrom}
       E  9.64645e+00 -1.90806e+00  9.40340e+00
       E -2.90183e+01 -4.93526e+01  1.57022e+01
       E -2.58500e+01 -8.02904e+00  4.84159e+01
3
# CELL(abcABC): 1322.94304  1322.94304  1322.94304    90.00000    90.00000    90.00000  Step:        3100  Bead:       2 positions{angstrom}  cell{angstrom}
       E  1.02224e+00 -1.99750e+01  3.36660e+01
       E -1.00946e+01 -8.81371e+01  3.51007e+01
       E -6.79957e+01 -2.49659e+01  2.66161e+01
3
# CELL(abcABC): 1322.94304  1322.94304  1322.94304    90.00000    90.00000    90.00000  Step:        3200  Bead:       2 positions{angstrom}  cell{angstrom}
       E  1.08549e+01  2.73484e+01  2.52206e+01
       E -4.51224e+01 -7.77982e+01  4.42421e+01
       E -2.50394e+00 -7.30635e+00  5.70306e+01
3
# CELL(abcABC): 1322.94304  1322.94304  1322.94304    90.00000    90.00000    90.00000  Step:        3300  Bead:       2 positions{angstrom}  cell{angstrom}
       E  2.22803e+01  3.25051e+01  6.46123e+01
       E -7.35425e+01 -4.00399e+01  5.51775e+01
       E -4.98023e+01 -4.99493e+00  8.02897e+01
3
# CELL(abcABC): 1322.94304  1322.94304  1322.94304    90.00000    90.00000    90.00000  Step:        3400  Bead:       2 positions{angstrom}  cell{angstrom}
       E -2.56553e+01  1.64536e+01  7.28180e+01
       E -7.45550e+01 -5.08981e+01  4.80548e+01
       E -5.74610e+01 -1.20232e+01  8.84573e+01
3
# CELL(abcABC): 1322.94304  1322.94304  1322.94304    90.00000    90.00000    90.00000  Step:        3500  Bead:       2 positions{angstrom}  cell{angstrom}
       E -1.19948e+01  2.12820e+01  1.83424e+01
       E -6.70503e+01 -6.24137e+01  4.18539e+01
       E -7.24095e+01 -8.73745e+00  5.78581e+01
3
# CELL(abcABC): 1322.94304  1322.94304  1322.94304    90.00000    90.00000    90.00000  Step:        3600  Bead:       2 positions{angstrom}  cell{angstrom}
       E -4.49900e+01  1.43788e+01 -1.60920e+00
       E -5.61932e+01 -5.16050e+01  3.28194e+01
       E -7.48280e+01 -3.21530e+01  2.21902e+01
3
# CELL(abcABC): 1322.94304  1322.94304  1322.94304    90.00000    90.00000    90.00000  Step:        3700  Bead:       2 positions{angstrom}  cell{angstrom}
       E -3.04034e+01 -9.11425e+00 -2.66929e+01
       E -1.32965e+01 -4.14143e+01  2.10352e+01
       E -7.66070e+01 -4.15246e+01  8.00248e+00
3
# CELL(abcABC): 1322.94304  1322.94304  1322.94304    90.00000    90.00000    90.00000  Step:        3800  Bead:       2 positions{angstrom}  cell{angstrom}
       E -3.38963e+01 -1.89484e+01 -2.48656e+01
       E -1.87850e+01 -2.78057e+01 -2.34277e+01
       E -3.40188e+01 -4.17461e+01  1.86682e+01
3
# CELL(abcABC): 1322.94304  1322.94304  1322.94304    90.00000    90.00000    90.00000  Step:        3900  Bead:       2 positions{angstrom}  cell{angstrom}
       E -4.10701e+01  1.88908e+01 -6.05674e+00
       E -1.63019e+01 -8.86250e+00 -5.22492e+01
       E -6.33202e+01 -4.59692e+01  1.07265e+01
3
# CELL(abcABC): 1322.94304  1322.94304  1322.94304    90.00000    90.00000    90.00000  Step:        4000  Bead:       2 positions{angstrom}  cell{angstrom}
       E -5.25126e+01  2.25085e+01  8.61749e+00
       E -3.94641e+01 -1.68688e+01 -4.13836e+01
       E -5.58728e+01 -4.18761e+01  1.01157e+01
3
# CELL(abcABC): 1322.94304  1322.94304  1322.94304    90.00000    90.00000    90.00000  Step:        4100  Bead:       2 positions{angstrom}  cell{angstrom}
       E -4.53083e+01  5.96360e+01 -6.77270e+01
       E -1.41533e+01  5.23071e+01  1.29868e+01
       E -7.41071e+01  2.72200e+01 -2.25205e+01
3
# CELL(abcABC): 1322.94304  1322.94304  1322.94304    90.00000    90.00000    90.00000  Step:        4200  Bead:       2 positions{angstrom}  cell{angstrom}
       E -3.63936e+01  4.02819e+01 -4.80998e+01
       E -2.43996e+01  6.07438e+01  2.62958e+01
       E -8.34030e+01 -2.71555e+01 -9.42236e+00
3
# CELL(abcABC): 1322.94304  1322.94304  1322.94304    90.00000    90.00000    90.00000  Step:        4300  Bead:       2 positions{angstrom}  cell{angstrom}
       E -4.42125e+01  4.18552e+00 -7.43567e+01
       E -4.36337e+01  5.61831e+01 -6.05743e+00
       E -6.93402e+01 -3.38148e+01  2.70850e+01
3
# CELL(abcABC): 1322.94304  1322.94304  1322.94304    90.00000    90.00000    90.00000  Step:        4400  Bead:       2 positions{angstrom}  cell{angstrom}
       E -4.88401e+01  4.24084e+01 -8.33886e+01
       E -5.42312e+01  7.59559e+01  4.61190e+01
       E -4.32530e+01 -9.96475e+00  3.26121e+01
3
# CELL(abcABC): 1322.94304  1322.94304  1322.94304    90.00000    90.00000    90.00000  Step:        4500  Bead:       2 positions{angstrom}  cell{angstrom}
       E -5.01575e+01  3.24729e+01 -3.64713e+01
       E -6.62822e+01  8.81402e+01  4.19534e+01
       E -3.62024e+01 -3.67670e+01  2.43102e+01
3
# CELL(abcABC): 1322.94304  1322.94304  1322.94304    90.00000    90.00000    90.00000  Step:        4600  Bead:       2 positions{angstrom}  cell{angstrom}
       E -4.34587e+01  1.48929e+01 -3.02427e+01
       E -6.46190e+01  4.58270e+01  1.73299e+01
       E -2.38465e+01 -1.98199e+01  2.56345e+01
3
# CELL(abcABC): 1322.94304  1322.94304  1322.94304    90.00000    90.00000    90.00000  Step:        4700  Bead:       2 positions{angstrom}  cell{angstrom}
       E -2.61559e+01  2.88969e+01 -3.10022e+01
       E -6.11547e+01  2.98691e+01  3.05300e+00
       E -9.40709e+00  7.47114e+00  3.24204e+01
3
# CELL(abcABC): 1322.94304  1322.94304  1322.94304    90.00000    90.00000    90.00000  Step:        4800  Bead:       2 positions{angstrom}  cell{angstrom}
       E  2.51507e+01  1.67492e+01 -2.42664e+01
       E -5.58530e+01 -3.32917e+01 -2.43952e+01
       E -3.80506e+00  7.15988e+00 -2.17449e+01
3
# CELL(abcABC): 1322.94304  1322.94304  1322.94304    90.00000    90.00000    90.00000  Step:        4900  Bead:       2 positions{angstrom}  cell{angstrom}
       E  6.87237e+01  3.88010e+01 -2.40409e+01
       E -8.85081e+01 -4.07584e+01 -1.28258e+01
       E  1.65306e+01  6.59724e+00 -5.41213e+01
3
# CELL(abcABC): 1322.94304  1322.94304  1322.94304    90.00000    90.00000    90.00000  Step:        5000  Bead:       2 positions{angstrom}  cell{angstrom}
       E  6.80211e+01  2.73258e+01 -1.23473e+01
       E -8.41802e+01 -5.88670e+01 -2.67165e+01
       E -4.81224e+00 -9.76473e+00 -5.25554e+01
3
# CELL(abcABC): 1322.94304  1322.94304  1322.94304    90.00000    90.00000    90.00000  Step:        5100  Bead:       2 positions{angstrom}  cell{angstrom}
       E  5.19650e+01  3.73997e+01  2.78595e+01
       E -8.83976e+01 -5.26817e+01 -1.02883e+01
       E  3.71623e+01  4.58171e+00 -1.16008e+01
3
# CELL(abcABC): 1322.94304  1322.94304  1322.94304    90.00000    90.00000    90.00000  Step:        5200  Bead:       2 positions{angstrom}  cell{angstrom}
       E  3.73563e+01  3.97279e+01 -4.35337e+00
       E -5.13892e+01 -3.62063e+00 -1.97593e+01
       E  1.60883e+01  2.13380e+01 -3.97941e+01
3
# CELL(abcABC): 1322.94304  1322.94304  1322.94304    90.00000    90.00000    90.00000  Step:        5300  Bead:       2 positions{angstrom}  cell{angstrom}
       E  1.99917e+01  1.43540e+01 -1.23850e+01
       E -5.13418e+01  3.57164e+01 -4.33679e+00
       E  5.43320e+00  2.46216e+01 -3.44896e+00
3
# CELL(abcABC): 1322.94304  1322.94304  1322.94304    90.00000    90.00000    90.00000  Step:        5400  Bead:       2 positions{angstrom}  cell{angstrom}
       E -1.63987e+01  3.49645e+01  3.19271e+01
       E -6.97722e+01  1.47639e+01 -2.03535e+01
       E -1.21687e+00  2.28743e+01  1.99517e+01
3
# CELL(abcABC): 1322.94304  1322.94304  1322.94304    90.00000    90.00000    90.00000  Step:        5500  Bead:       2 positions{angstrom}  cell{angstrom}
       E -3.10312e+00  3.94986e+01  5.09790e+01
       E -3.52165e+01  3.60097e+01 -2.16260e+00
       E -9.92182e+00  4.13618e+01  1.49418e+01
3
# CELL(abcABC): 1322.94304  1322.94304  1322.94304    90.00000    90.00000    90.00000  Step:        5600  Bead:       2 positions{angstrom}  cell{angstrom}
       E -6.04098e+00  2.60141e+01  1.00507e+01
       E -3.59944e+01 -2.17117e+00 -1.82192e+01
       E  1.34511e+01  1.45435e+01  1.59129e+01
3
# CELL(abcABC): 1322.94304  1322.94304  1322.94304    90.00000    90.00000    90.00000  Step:        5700  Bead:       2 positions{angstrom}  cell{angstrom}
       E -2.07415e+01 -3.28327e+00  4.08602e+01
       E -1.46213e+01  1.21002e+01 -1.08264e+01
       E -3.98148e+01  2.74285e-01  2.09893e+01
3
# CELL(abcABC): 1322.94304  1322.94304  1322.94304    90.00000    90.00000    90.00000  Step:        5800  Bead:       2 positions{angstrom}  cell{angstrom}
       E -2.49738e+01  9.21178e+00  6.28451e+00
       E -2.51783e+01  4.11057e+01  1.37423e+01
       E -3.41636e+01 -2.88508e+00  2.28946e+01
3
# CELL(abcABC): 1322.94304  1322.94304  1322.94304    90.00000    90.00000    90.00000  Step:        5900  Bead:       2 positions{angstrom}  cell{angstrom}
       E -2.25223e+01 -2.91677e+00  1.14373e+00
       E -5.86925e+01  1.65476e+01 -1.32412e+01
       E  1.27643e+00 -3.23021e+01 -1.86007e+01
3
# CELL(abcABC): 1322.94304  1322.94304  1322.94304    90.00000    90.00000    90.00000  Step:        6000  Bead:       2 positions{angstrom}  cell{angstrom}
       E -5.12498e+00 -1.05022e+01 -4.78042e+01
       E -3.01743e+00  1.30776e+01 -2.69335e+01
       E  3.69570e+01 -4.64367e+01 -4.11254e+01
3
# CELL(abcABC): 1322.94304  1322.94304  1322.94304    90.00000    90.00000    90.00000  Step:        6100  Bead:       2 positions{angstrom}  cell{angstrom}
       E  2.78850e+01 -1.43290e+01 -6.55285e+01
       E  1.70247e+01 -3.13524e+01 -1.25344e+01
       E  4.81839e+00 -2.97232e+01 -6.94562e+00
3
# CELL(abcABC): 1322.94304  1322.94304  1322.94304    90.00000    90.00000    90.00000  Step:        6200  Bead:       2 positions{angstrom}  cell{angstrom}
       E  5.66990e+01 -1.66549e+01 -9.28686e+01
       E  5.50419e+01 -2.00671e+01  6.66605e-02
       E  1.23807e+01 -1.22456e+01 -1.79437e+01
3
# CELL(abcABC): 1322.94304  1322.94304  1322.94304    90.00000    90.00000    90.00000  Step:        6300  Bead:       2 positions{angstrom}  cell{angstrom}
       E  3.31691e+01 -6.08397e+01 -9.77296e+01
       E  5.66870e+01 -5.74348e+01 -2.37427e+01
       E  1.05659e+01 -3.15803e+01  6.51306e-02
3
# CELL(abcABC): 1322.94304  1322.94304  1322.94304    90.00000    90.00000    90.00000  Step:        6400  Bead:       2 positions{angstrom}  cell{angstrom}
       E  2.23843e+01 -8.32392e+01 -1.05063e+02
       E  5.34053e+01 -4.55232e+01 -1.35615e+01
       E  3.09700e+01 -4.27445e+01  1.86926e+01
3
# CELL(abcABC): 1322.94304  1322.94304  1322.94304    90.00000    90.00000    90.00000  Step:        6500  Bead:       2 positions{angstrom}  cell{angstrom}
       E -1.28438e+01 -1.10579e+02 -1.15277e+02
       E  3.42896e+01 -6.91567e+00 -3.55432e+01
       E  4.19469e+00 -1.32061e+01  1.29078e+01
3
# CELL(abcABC): 1322.94304  1322.94304  1322.94304    90.00000    90.00000    90.00000  Step:        6600  Bead:       2 positions{angstrom}  cell{angstrom}
       E  1.13486e+01 -8.21514e+01 -1.29850e+02
       E  1.06288e+01 -1.99804e+00 -1.25358e+01
       E -2.66538e+01 -4.61869e+01  4.52836e+01
3
# CELL(abcABC): 1322.94304  1322.94304  1322.94304    90.00000    90.00000    90.00000  Step:        6700  Bead:       2 positions{angstrom}  cell{angstrom}
       E  1.69372e+01 -7.91447e+01 -1.24740e+02
       E  4.53064e+01 -2.91781e+01 -3.14977e+01
       E -1.19764e+01  9.27309e+00  1.83131e+01
3
# CELL(abcABC): 1322.94304  1322.94304  1322.94304    90.00000    90.00000    90.00000  Step:        6800  Bead:       2 positions{angstrom}  cell{angstrom}
       E -1.32430e+01 -6.90030e+01 -7.97250e+01
       E  3.47464e+01 -4.81901e+01 -3.96360e+01
       E -1.48287e+01  1.98566e+01  6.08746e+01
3
# CELL(abcABC): 1322.94304  1322.94304  1322.94304    90.00000    90.00000    90.00000  Step:        6900  Bead:       2 positions{angstrom}  cell{angstrom}
       E -3.24588e+01 -6.88574e+01 -6.39311e+01
       E -1.25425e+01  5.59532e+00 -1.46702e+01
       E -5.50137e+00  5.95855e+00  2.95528e+01
3
# CELL(abcABC): 1322.94304  1322.94304  1322.94304    90.00000    90.00000    90.00000  Step:        7000  Bead:       2 positions{angstrom}  cell{angstrom}
       E -2.82707e+01 -5.19908e+01 -4.45043e+01
       E -4.93310e+00  1.06171e+01 -5.37788e+01
       E  1.82890e+01  1.38028e+01  4.54036e+01
3
# CELL(abcABC): 1322.94304  1322.94304  1322.94304    90.00000    90.00000    90.00000  Step:        7100  Bead:       2 positions{angstrom}  cell{angstrom}
       E -1.76114e+01 -9.97465e+00 -3.64728e+01
       E -2.87679e+01  4.91883e+01  2.75298e+01
       E  2.33120e+01  1.18566e+01  2.16265e+01
3
# CELL(abcABC): 1322.94304  1322.94304  1322.94304    90.00000    90.00000    90.00000  Step:        7200  Bead:       2 positions{angstrom}  cell{angstrom}
       E -2.21339e+01 -2.32888e+01 -4.82377e+01
       E -4.17308e+01  3.36016e+01  5.54569e+01
       E  3.24973e+01  6.03380e+01  8.94196e+00
3
# CELL(abcABC): 1322.94304  1322.94304  1322.94304    90.00000    90.00000    90.00000  Step:        7300  Bead:       2 positions{angstrom}  cell{angstrom}
       E -1.03234e+01 -2.96804e+01 -4.89122e+01
       E -4.03840e+01  6.36733e+01  5.31936e+01
       E  4.54918e+01  2.21666e+01 -2.94909e+01
3
# CELL(abcABC): 1322.94304  1322.94304  1322.94304    90.00000    90.00000    90.00000  Step:        7400  Bead:       2 positions{angstrom}  cell{angstrom}
       E  1.71284e+01 -1.45230e+01 -1.08077e+01
       E -2.98993e+01  3.83491e+01  3.43185e+01
       E  5.74932e+01  1.29952e+01 -5.55709e+01
3
# CELL(abcABC): 1322.94304  1322.94304  1322.94304    90.00000    90.00000    90.00000  Step:        7500  Bead:       2 positions{angstrom}  cell{angstrom}
       E -1.33001e+01 -4.24628e+01 -2.87307e+01
       E -3.46592e+01  2.80706e+00  1.62169e+01
       E  6.50329e+01  5.04573e+01 -4.21004e+01
3
# CELL(abcABC): 1322.94304  1322.94304  1322.94304    90.00000    90.00000    90.00000  Step:        7600  Bead:       2 positions{angstrom}  cell{angstrom}
       E -3.09497e+01 -6.80884e+01 -4.61522e+01
       E -9.88007e+00 -4.15644e+01 -5.92563e+00
       E  7.53204e+01  6.05292e+01 -3.80355e+01
3
# CELL(abcABC): 1322.94304  1322.94304  1322.94304    90.00000    90.00000    90.00000  Step:        7700  Bead:       2 positions{angstrom}  cell{angstrom}
       E  6.65880e-01 -6.47777e+01 -1.99794e+01
       E -4.52547e+00 -4.96216e+01 -8.47808e+00
       E  4.55921e+01 -1.76647e+00 -1.14555e+01
3
# CELL(abcABC): 1322.94304  1322.94304  1322.94304    90.00000    90.00000    90.00000  Step:        7800  Bead:       2 positions{angstrom}  cell{angstrom}
       E  1.40691e+01 -2.88685e+01 -3.18383e+01
       E  9.69297e+00 -5.53670e+01 -3.03920e+01
       E  4.22704e+01  5.62400e+00 -5.41387e+01
3
# CELL(abcABC): 1322.94304  1322.94304  1322.94304    90.00000    90.00000    90.00000  Step:        7900  Bead:       2 positions{angstrom}  cell{angstrom}
       E  1.41571e+01  1.04250e+01 -2.87594e+01
       E  4.58965e+01 -1.36294e+01 -3.80186e+01
       E  5.95723e+01  1.99656e+01 -4.28333e+01
3
# CELL(abcABC): 1322.94304  1322.94304  1322.94304    90.00000    90.00000    90.00000  Step:        8000  Bead:       2 positions{angstrom}  cell{angstrom}
       E  3.14153e+01  2.99377e+01 -1.33234e+01
       E  4.40760e+01 -4.18885e+01 -4.67552e+01
       E  5.39958e+01  3.95796e+01 -3.12776e+01
3
# CELL(abcABC): 1322.94304  1322.94304  1322.94304    90.00000    90.00000    90.00000  Step:        8100  Bead:       2 positions{angstrom}  cell{angstrom}
       E  1.26565e+01  3.50100e+01 -1.86221e+00
       E  1.97446e+01 -2.49625e+00 -1.58714e+01
       E -1.65636e+01 -3.84777e+01 -3.21447e+00
3
# CELL(abcABC): 1322.94304  1322.94304  1322.94304    90.00000    90.00000    90.00000  Step:        8200  Bead:       2 positions{angstrom}  cell{angstrom}
       E  3.75298e+01  1.80302e+01 -2.65949e+01
       E  2.13278e+01  4.84922e+01 -1.40879e+01
       E  3.70273e+01 -2.79288e+01 -1.65520e+00
3
# CELL(abcABC): 1322.94304  1322.94304  1322.94304    90.00000    90.00000    90.00000  Step:        8300  Bead:       2 positions{angstrom}  cell{angstrom}
       E  3.80633e+01  8.34917e+00 -2.61679e+01
       E  3.79299e+01  5.53127e+00  2.60374e+01
       E  1.83682e+01 -1.36566e+01 -4.10815e+00
3
# CELL(abcABC): 1322.94304  1322.94304  1322.94304    90.00000    90.00000    90.00000  Step:        8400  Bead:       2 positions{angstrom}  cell{angstrom}
       E  5.15908e+01  8.02703e+00  1.11913e+01
       E  2.78308e+01  4.20130e+01  4.18108e+01
       E  2.36902e+01  8.54213e+00  3.00259e+01
3
# CELL(abcABC): 1322.94304  1322.94304  1322.94304    90.00000    90.00000    90.00000  Step:        8500  Bead:       2 positions{angstrom}  cell{angstrom}
       E  3.07099e+00 -6.46039e+00  1.01439e+01
       E  3.32885e+01  3.02345e+01  2.17543e+01
       E  4.36213e+01 -7.80160e+00  2.17871e+01
3
# CELL(abcABC): 1322.94304  1322.94304  1322.94304    90.00000    90.00000    90.00000  Step:        8600  Bead:       2 positions{angstrom}  cell{angstrom}
       E -3.37310e+01 -8.74931e+00 -1.09188e+00
       E  4.92231e+01 -9.38365e-01 -2.17084e+01
       E  5.41017e+01 -1.21508e+01  4.24985e+01
3
# CELL(abcABC): 1322.94304  1322.94304  1322.94304    90.00000    90.00000    90.00000  Step:        8700  Bead:       2 positions{angstrom}  cell{angstrom}
       E -2.89713e+01  2.47413e+01 -1.98603e+01
       E  1.82996e+01 -1.89866e+01 -1.55104e+01
       E  3.65149e+01 -4.67089e+01  3.45014e+01
3
# CELL(abcABC): 1322.94304  1322.94304  1322.94304    90.00000    90.00000    90.00000  Step:        8800  Bead:       2 positions{angstrom}  cell{angstrom}
       E -1.40247e+01  4.18001e+01 -4.75316e+00
       E -6.38739e+00 -2.67876e+01  2.09667e+00
       E  5.92271e+01 -7.33504e+01  6.75322e+01
3
# CELL(abcABC): 1322.94304  1322.94304  1322.94304    90.00000    90.00000    90.00000  Step:        8900  Bead:       2 positions{angstrom}  cell{angstrom}
       E -2.10697e+01  3.66983e+01  1.59318e+00
       E -2.80593e+01 -2.95706e+01  3.00681e+01
       E  1.78379e+01 -6.57033e+01  6.14100e+00
3
# CELL(abcABC): 1322.94304  1322.94304  1322.94304    90.00000    90.00000    90.00000  Step:        9000  Bead:       2 positions{angstrom}  cell{angstrom}
       E -1.02626e+01  4.46914e+01  1.06438e+01
       E -5.13481e+01 -3.31142e+01  2.65592e+01
       E -5.23528e+00 -6.78036e+01 -1.35168e+01
3
# CELL(abcABC): 1322.94304  1322.94304  1322.94304    90.00000    90.00000    90.00000  Step:        9100  Bead:       2 positions{angstrom}  cell{angstrom}
       E  2.85362e+01  4.35105e+01  2.14858e+01
       E -5.27698e+01  1.04193e+01  1.53465e+01
       E -1.38327e+01 -5.97205e+01 -1.47484e+01
3
# CELL(abcABC): 1322.94304  1322.94304  1322.94304    90.00000    90.00000    90.00000  Step:        9200  Bead:       2 positions{angstrom}  cell{angstrom}
       E -1.74537e+01  3.42620e+01  4.57557e-01
       E  6.95069e+00 -1.24280e+01  4.63444e+01
       E  2.29021e+01 -3.68705e+01 -3.05985e+01
3
# CELL(abcABC): 1322.94304  1322.94304  1322.94304    90.00000    90.00000    90.00000  Step:        9300  Bead:       2 positions{angstrom}  cell{angstrom}
       E  4.17956e+01  5.03743e+01 -4.09989e+01
       E  2.99383e+01 -5.16604e+01  2.56702e+01
       E  4.13775e+01 -2.78372e+01  2.06713e+01
3
# CELL(abcABC): 1322.94304  1322.94304  1322.94304    90.00000    90.00000    90.00000  Step:        9400  Bead:       2 positions{angstrom}  cell{angstrom}
       E  2.48028e+01  4.92890e+01 -2.54530e+01
       E  3.49961e+01 -4.76695e+01 -3.38940e+00
       E  2.95148e+00 -7.54394e+00  2.31678e+01
3
# CELL(abcABC): 1322.94304  1322.94304  1322.94304    90.00000    90.00000    90.00000  Step:        9500  Bead:       2 positions{angstrom}  cell{angstrom}
       E  4.99526e+00  4.13419e+00 -2.75742e+01
       E  3.44248e+01  6.07255e+00  2.80380e+01
       E -7.67997e+00 -1.83823e+01  2.29961e+01
3
# CELL(abcABC): 1322.94304  1322.94304  1322.94304    90.00000    90.00000    90.00000  Step:        9600  Bead:       2 positions{angstrom}  cell{angstrom}
       E -2.18956e+01  1.23831e+01 -5.40979e+01
       E  5.60135e+01 -3.29275e+01  3.59872e+01
       E -2.31617e+01 -3.57919e+01 -1.12706e+01
3
# CELL(abcABC): 1322.94304  1322.94304  1322.94304    90.00000    90.00000    90.00000  Step:        9700  Bead:       2 positions{angstrom}  cell{angstrom}
       E -5.66026e+01 -2.75795e+00 -7.01658e+01
       E  2.96321e+01 -8.19957e+01 -4.90741e+00
       E -4.55037e+01 -3.18545e+01 -1.15885e+01
3
# CELL(abcABC): 1322.94304  1322.94304  1322.94304    90.00000    90.00000    90.00000  Step:        9800  Bead:       2 positions{angstrom}  cell{angstrom}
       E -5.49180e+01 -6.69604e+01 -7.24913e+01
       E  4.71074e+01 -9.46360e+01 -7.13730e+00
       E  1.19425e+00 -1.84788e+01  5.19578e+01
3