3
# CELL(abcABC): 1322.94304  1322.94304  1322.94304    90.00000    90.00000    90.00000  Step:           0  Bead:      20 positions{angstrom}  cell{angstrom}
       E  0.00000e+00  0.00000e+00  0.00000e+00
       E  0.00000e+00  0.00000e+00  0.00000e+00
       E  0.00000e+00  0.00000e+00  0.00000e+00
3
# CELL(abcABC): 1322.94304  1322.94304  1322.94304    90.00000    90.00000    90.00000  Step:         100  Bead:      20 positions{angstrom}  cell{angstrom}
       E  1.74116e+01 -4.74501e+00 -2.66509e+01
       E -2.18102e+01 -5.67275e+01 -1.82344e+01
       E -1.89855e+01  8.00192e+00 -1.07044e+01
3
# CELL(abcABC): 1322.94304  1322.94304  1322.94304    90.00000    90.00000    90.00000  Step:         200  Bead:      20 positions{angstrom}  cell{angstrom}
       E  3.68134e+01  7.87159e-01 -4.26739e+00
       E  1.95269e+01 -3.88018e+01  2.20817e+00
       E  1.33081e+01  3.83843e+01 -1.32245e+01
3
# CELL(abcABC): 1322.94304  1322.94304  1322.94304    90.00000    90.00000    90.00000  Step:         300  Bead:      20 positions{angstrom}  cell{angstrom}
       E  2.73981e+01  1.86182e+01  4.29541e+01
       E  1.32113e+01 -2.62057e+00  2.80674e+01
       E -2.64106e+01  3.14047e+01 -5.11489e+01
3
# CELL(abcABC): 1322.94304  1322.94304  1322.94304    90.00000    90.00000    90.00000  Step:         400  Bead:      20 positions{angstrom}  cell{angstrom}
       E -4.47572e+01  3.74387e+01 -8.42849e+00
       E  2.80022e+01  1.09538e+01 -2.37831e+01
       E -1.90919e+01  1.33195e+01 -9.35836e+00
3
# CELL(abcABC): 1322.94304  1322.94304  1322.94304    90.00000    90.00000    90.00000  Step:         500  Bead:      20 positions{angstrom}  cell{angstrom}
       E -2.03215e+01 -5.56099e+00 -1.59711e+01
       E  1.49287e+01 -1.09065e+01  1.16626e+01
       E  1.02914e+01 -5.99009e+00  1.41446e+01
3
# CELL(abcABC): 1322.94304  1322.94304  1322.94304    90.00000    90.00000    90.00000  Step:         600  Bead:      20 positions{angstrom}  cell{angstrom}
       E -1.51235e+01  2.04546e+01 -1.28927e+01
       E  2.46498e+01 -3.44516e-01 -2.28619e+01
       E -9.13940e+00 -3.45898e+01  1.02171e+01
3
# CELL(abcABC): 1322.94304  1322.94304  1322.94304    90.00000    90.00000    90.00000  Step:         700  Bead:      20 positions{angstrom}  cell{angstrom}
       E  2.62778e+00  2.60635e+01  1.01814e+00
       E  4.15172e+01  1.11466e+01 -2.43149e+00
       E  1.74093e+00  6.27334e+00  2.53672e+01
3
# CELL(abcABC): 1322.94304  1322.94304  1322.94304    90.00000    90.00000    90.00000  Step:         800  Bead:      20 positions{angstrom}  cell{angstrom}
       E -1.36871e+01  9.23426e+00  9.70272e+00
       E  5.26191e+01 -6.43246e+00 -5.54271e-01
       E -2.20556e+01 -3.08003e+01  6.54502e+01
3
# CELL(abcABC): 1322.94304  1322.94304  1322.94304    90.00000    90.00000    90.00000  Step:         900  Bead:      20 positions{angstrom}  cell{angstrom}
       E -2.25118e+01  3.17268e+01 -3.91727e+01
       E  2.18635e+01 -1.48646e+01 -2.53027e+01
       E -4.57538e+01 -2.78614e+01  7.47573e+01
3
# CELL(abcABC): 1322.94304  1322.94304  1322.94304    90.00000    90.00000    90.00000  Step:        1000  Bead:      20 positions{angstrom}  cell{angstrom}
       E  2.40484e+01  3.09830e+01 -2.52207e+01
       E -1.19927e+01 -1.45410e+01 -3.66104e+01
       E -3.81425e+01 -1.33857e+01  6.01121e+01
3
# CELL(abcABC): 1322.94304  1322.94304  1322.94304    90.00000    90.00000    90.00000  Step:        1100  Bead:      20 positions{angstrom}  cell{angstrom}
       E -4.43546e+00 -1.00663e+01 -3.79463e+01
       E  1.06941e+01 -3.61960e+00 -3.80219e+01
       E -2.32544e+01  3.93544e+01  5.93700e+01
3
# CELL(abcABC): 1322.94304  1322.94304  1322.94304    90.00000    90.00000    90.00000  Step:        1200  Bead:      20 positions{angstrom}  cell{angstrom}
       E -1.88629e+01  3.53846e+01 -5.45005e+01
       E  3.05303e+01 -3.55398e+01 -9.20693e+00
       E -3.38746e+00  4.38917e+01 -3.98032e+00
3
# CELL(abcABC): 1322.94304  1322.94304  1322.94304    90.00000    90.00000    90.00000  Step:        1300  Bead:      20 positions{angstrom}  cell{angstrom}
       E -3.13297e+01  4.59612e+01 -7.26787e+01
       E  4.35291e+01 -3.50227e+01 -4.01523e+01
       E  9.62298e+00  1.58017e+01  2.83630e+00
3
# CELL(abcABC): 1322.94304  1322.94304  1322.94304    90.00000    90.00000    90.00000  Step:        1400  Bead:      20 positions{angstrom}  cell{angstrom}
       E -7.02457e+00  3.27530e+01 -5.08358e+01
       E  1.79521e+01 -4.05201e+00 -3.56695e+01
       E  1.31203e+01  3.07838e+00  7.96893e+00
3
# CELL(abcABC): 1322.94304  1322.94304  1322.94304    90.00000    90.00000    90.00000  Step:        1500  Bead:      20 positions{angstrom}  cell{angstrom}
       E -1.00667e+01  5.47123e+01 -1.77198e+01
       E -2.62821e+01  1.50111e+01 -1.51626e+01
       E -2.39855e+01  1.40203e+00  1.70448e+01
3
# CELL(abcABC): 1322.94304  1322.94304  1322.94304    90.00000    90.00000    90.00000  Step:        1600  Bead:      20 positions{angstrom}  cell{angstrom}
       E -1.58900e+01  1.73288e+01 -1.51506e+01
       E -3.28709e+01  1.03954e+01 -7.98613e+00
       E  2.69279e+01  2.48131e+01 -1.35718e+01
3
# CELL(abcABC): 1322.94304  1322.94304  1322.94304    90.00000    90.00000    90.00000  Step:        1700  Bead:      20 positions{angstrom}  cell{angstrom}
       E -8.26947e+00  5.86188e+01  2.08862e-01
       E -3.74536e+01  2.26113e+01  2.94131e+01
       E -1.30138e+01  6.80637e+01  2.10511e+01
3
# CELL(abcABC): 1322.94304  1322.94304  1322.94304    90.00000    90.00000    90.00000  Step:        1800  Bead:      20 positions{angstrom}  cell{angstrom}
       E  5.11481e-01  4.86338e+01  4.35184e+01
       E -6.07623e+01  5.69165e+01  2.12526e+01
       E -3.89330e+01  5.29836e+01  3.24232e+01
3
# CELL(abcABC): 1322.94304  1322.94304  1322.94304    90.00000    90.00000    90.00000  Step:        1900  Bead:      20 positions{angstrom}  cell{angstrom}
       E  1.22901e+01  3.76662e+00  3.82931e+01
       E -4.88622e+01  2.71509e+01  2.87983e+01
       E -9.88639e+01  4.53168e+01  3.85840e+00
3
# CELL(abcABC): 1322.94304  1322.94304  1322.94304    90.00000    90.00000    90.00000  Step:        2000  Bead:      20 positions{angstrom}  cell{angstrom}
       E -2.71630e+01 -6.16254e+01  3.97980e+01
       E -6.26261e+01 -3.11048e-01  4.02497e+01
       E -6.52867e+01  6.57127e+01  1.26866e+01
3
# CELL(abcABC): 1322.94304  1322.94304  1322.94304    90.00000    90.00000    90.00000  Step:        2100  Bead:      20 positions{angstrom}  cell{angstrom}
       E -5.26920e+01 -2.39827e+01  4.22792e+01
       E -5.52219e+01  2.84579e+00  1.46283e+01
       E -8.15197e+01  9.39945e+01  4.27820e+01
3
# CELL(abcABC): 1322.94304  1322.94304  1322.94304    90.00000    90.00000    90.00000  Step:        2200  Bead:      20 positions{angstrom}  cell{angstrom}
       E -3.17424e+01 -1.78229e+01  4.97897e+01
       E -2.34312e+01 -5.22837e+01 -2.37220e+00
       E -6.07814e+01  3.62868e+01 -2.03741e+00
3
# CELL(abcABC): 1322.94304  1322.94304  1322.94304    90.00000    90.00000    90.00000  Step:        2300  Bead:      20 positions{angstrom}  cell{angstrom}
       E -8.06916e+01  6.76239e+00  6.14723e+01
       E -1.08987e+01 -2.85433e+01  1.23173e+01
       E -1.59241e+01 -1.43005e+01  2.42332e+00
3
# CELL(abcABC): 1322.94304  1322.94304  1322.94304    90.00000    90.00000    90.00000  Step:        2400  Bead:      20 positions{angstrom}  cell{angstrom}
       E -7.08623e+01  1.21966e+01  4.47632e+01
       E -2.90334e+01 -8.62772e+00 -8.75827e+00
       E  1.68481e+01 -2.04516e+01  1.28245e+01
3
# CELL(abcABC): 1322.94304  1322.94304  1322.94304    90.00000    90.00000    90.00000  Step:        2500  Bead:      20 positions{angstrom}  cell{angstrom}
       E -6.36924e+01  1.20703e+01  3.38687e+01
       E -2.69884e+01 -2.94663e+01 -1.97328e+01
       E  3.67752e+01 -3.99210e+01  2.82539e+01
3
# CELL(abcABC): 1322.94304  1322.94304  1322.94304    90.00000    90.00000    90.00000  Step:        2600  Bead:      20 positions{angstrom}  cell{angstrom}
       E -6.77000e+01  9.04781e+00  4.66641e+01
       E -2.59887e+01 -4.96087e+01 -4.69848e+01
       E  1.15478e+01 -2.24296e+01  5.87563e+01
3
# CELL(abcABC): 1322.94304  1322.94304  1322.94304    90.00000    90.00000    90.00000  Step:        2700  Bead:      20 positions{angstrom}  cell{angstrom}
       E -5.25577e+01  1.79712e+00  6.27606e+01
       E -7.31071e+01 -3.65758e+01 -2.31654e+01
       E  1.87082e+01 -2.50071e+01  4.40342e+01
3
# CELL(abcABC): 1322.94304  1322.94304  1322.94304    90.00000    90.00000    90.00000  Step:        2800  Bead:      20 positions{angstrom}  cell{angstrom}
       E -5.96203e+01 -2.85661e+00  6.37512e+01
       E -9.00505e+01 -6.01209e+01 -1.67521e+01
       E  3.01550e+00 -2.43083e+01  2.50590e+01
3
# CELL(abcABC): 1322.94304  1322.94304  1322.94304    90.00000    90.00000    90.00000  Step:        2900  Bead:      20 positions{angstrom}  cell{angstrom}
       E -9.28182e+01 -6.51410e+00  3.35714e+01
       E -1.07669e+02 -6.44626e+01  3.02131e+01
       E  2.83686e+00 -1.40103e+01  7.51495e+00
3
# CELL(abcABC): 1322.94304  1322.94304  1322.94304    90.00000    90.00000    90.00000  Step:        3000  Bead:      20 positions{angstrom}  cell{angstrom}
       E -1.97669e+01 -1.66051e+01  6.18743e+01
       E -8.56272e+01 -5.86475e+01  2.03468e+01
       E -7.29294e-01  8.58516e+00  9.58279e+00
3
# CELL(abcABC): 1322.94304  1322.94304  1322.94304    90.00000    90.00000    90.00000  Step:        3100  Bead:      20 positions{angstrom}  cell{angstrom}
       E -4.20494e+01 -1.53088e+01  7.64178e+01
       E -8.31409e+01 -4.96872e+01  2.23509e+01
       E  3.46630e+01  3.60219e+01  2.48250e+01
3
# CELL(abcABC): 1322.94304  1322.94304  1322.94304    90.00000    90.00000    90.00000  Step:        3200  Bead:      20 positions{angstrom}  cell{angstrom}
       E -2.70746e+01  2.27944e+01  1.36419e+01
       E -1.07944e+02 -2.16126e+01  4.73844e+01
       E  2.00068e+01  6.26139e+01  1.91063e+01
3
# CELL(abcABC): 1322.94304  1322.94304  1322.94304    90.00000    90.00000    90.00000  Step:        3300  Bead:      20 positions{angstrom}  cell{angstrom}
       E -1.81594e+00  1.19583e+01  5.23033e+01
       E -9.77302e+01 -4.65653e+01  5.89799e+01
       E -1.68764e+01  7.16256e+01 -1.61789e+01
3
# CELL(abcABC): 1322.94304  1322.94304  1322.94304    90.00000    90.00000    90.00000  Step:        3400  Bead:      20 positions{angstrom}  cell{angstrom}
       E -5.74760e+01  1.44156e+01  8.08902e+01
       E -5.04592e+01 -2.87526e+01  3.12525e+01
       E -1.93137e+00  3.82389e+01  2.61038e+01
3
# CELL(abcABC): 1322.94304  1322.94304  1322.94304    90.00000    90.00000    90.00000  Step:        3500  Bead:      20 positions{angstrom}  cell{angstrom}
       E -8.87475e+01  3.84247e+01  6.14253e+01
       E -3.38319e+01 -7.36538e+00  3.98839e+01
       E -2.81751e+01  2.47443e+01  4.45478e+01
3
# CELL(abcABC): 1322.94304  1322.94304  1322.94304    90.00000    90.00000    90.00000  Step:        3600  Bead:      20 positions{angstrom}  cell{angstrom}
       E -6.25894e+01  1.03366e+01  3.10799e+01
       E  4.36393e+00 -4.23340e+01  4.64733e+01
       E -3.69562e+01  1.48395e+01  2.73224e+01
3
# CELL(abcABC): 1322.94304  1322.94304  1322.94304    90.00000    90.00000    90.00000  Step:        3700  Bead:      20 positions{angstrom}  cell{angstrom}
       E -6.90320e+01  1.93502e+01 -3.29524e+01
       E -8.25737e-01 -2.62832e+01  8.97399e+00
       E -7.49526e+01 -1.07889e+01 -1.33054e+01
3
# CELL(abcABC): 1322.94304  1322.94304  1322.94304    90.00000    90.00000    90.00000  Step:        3800  Bead:      20 positions{angstrom}  cell{angstrom}
       E -7.92228e+01 -1.01783e+01 -6.36018e+00
       E  1.38120e+01 -4.10068e+01  3.84804e+01
       E -6.03584e+01  2.27844e+01 -2.57316e+01
3
# CELL(abcABC): 1322.94304  1322.94304  1322.94304    90.00000    90.00000    90.00000  Step:        3900  Bead:      20 positions{angstrom}  cell{angstrom}
       E -1.02491e+02 -1.94128e+00 -3.13559e+01
       E -2.97441e+01 -5.17563e+01  7.97582e+00
       E -2.67070e+01 -1.53300e+01  7.91085e+00
3
# CELL(abcABC): 1322.94304  1322.94304  1322.94304    90.00000    90.00000    90.00000  Step:        4000  Bead:      20 positions{angstrom}  cell{angstrom}
       E -1.15304e+02  2.71173e+01 -3.11181e+01
       E -3.87615e+01 -6.77440e+00  3.78240e+01
       E -3.12776e+01  1.96901e+01  2.84625e+01
3
# CELL(abcABC): 1322.94304  1322.94304  1322.94304    90.00000    90.00000    90.00000  Step:        4100  Bead:      20 positions{angstrom}  cell{angstrom}
       E -8.56933e+01  1.28933e+01 -7.55763e+01
       E -5.56080e+01  1.17410e+01 -1.79427e+01
       E -2.57601e+01  3.23396e-01  2.22610e+01
3
# CELL(abcABC): 1322.94304  1322.94304  1322.94304    90.00000    90.00000    90.00000  Step:        4200  Bead:      20 positions{angstrom}  cell{angstrom}
       E -8.93690e+01 -1.31793e+01 -1.14611e+02
       E -6.94880e+01  3.33966e+01  2.21671e+00
       E -1.70469e+01  1.55024e+01  5.53303e+01
3
# CELL(abcABC): 1322.94304  1322.94304  1322.94304    90.00000    90.00000    90.00000  Step:        4300  Bead:      20 positions{angstrom}  cell{angstrom}
       E -1.06917e+01  1.65215e+01 -5.81892e+01
       E -2.96662e+01  1.26948e+01  1.20985e+01
       E  6.59453e+00 -1.56828e+00  2.08077e+01
3
# CELL(abcABC): 1322.94304  1322.94304  1322.94304    90.00000    90.00000    90.00000  Step:        4400  Bead:      20 positions{angstrom}  cell{angstrom}
       E -1.25149e+01  1.32902e+01 -3.09782e+01
       E -3.30140e+01  4.68239e+01 -3.75585e+01
       E  4.13541e+01 -3.98519e+01  8.24591e+00
3
# CELL(abcABC): 1322.94304  1322.94304  1322.94304    90.00000    90.00000    90.00000  Step:        4500  Bead:      20 positions{angstrom}  cell{angstrom}
       E -5.11845e+01 -9.70997e+00 -7.84209e+01
       E -3.04269e+01  7.56112e+01 -1.68739e+01
       E  8.40842e+00 -1.81605e+01  2.16924e+01
3
# CELL(abcABC): 1322.94304  1322.94304  1322.94304    90.00000    90.00000    90.00000  Step:        4600  Bead:      20 positions{angstrom}  cell{angstrom}
       E -4.24717e+01  1.29206e+01 -7.91080e+01
       E -3.02199e+01  1.20749e+02  1.07603e+01
       E -1.91545e+01  1.21185e+01 -8.66557e+00
3
# CELL(abcABC): 1322.94304  1322.94304  1322.94304    90.00000    90.00000    90.00000  Step:        4700  Bead:      20 positions{angstrom}  cell{angstrom}
       E -2.64024e+01  3.80037e+01 -4.04230e+01
       E -3.44612e+01  4.83702e+01 -1.15672e+01
       E -1.36482e+01 -1.46727e+01  6.94648e+00
3
# CELL(abcABC): 1322.94304  1322.94304  1322.94304    90.00000    90.00000    90.00000  Step:        4800  Bead:      20 positions{angstrom}  cell{angstrom}
       E -1.92475e+01  1.21278e+01 -4.61512e+01
       E -5.13016e+01  2.40259e+01  2.55434e+00
       E  1.85185e+01 -7.76097e+00  2.53403e+01
3
# CELL(abcABC): 1322.94304  1322.94304  1322.94304    90.00000    90.00000    90.00000  Step:        4900  Bead:      20 positions{angstrom}  cell{angstrom}
       E  3.85143e+01  1.04970e+01  1.42883e+01
       E -5.42826e+01 -9.83379e+00 -2.56574e+01
       E  7.09157e-01 -5.50578e+01  1.05871e+01
3
# CELL(abcABC): 1322.94304  1322.94304  1322.94304    90.00000    90.00000    90.00000  Step:        5000  Bead:      20 positions{angstrom}  cell{angstrom}
       E  2.95774e+01  3.70343e+00  2.53458e+01
       E -4.68641e+01 -1.19632e+01 -1.27315e+01
       E  1.97466e+01  1.28775e+01 -1.24847e+01
3
# CELL(abcABC): 1322.94304  1322.94304  1322.94304    90.00000    90.00000    90.00000  Step:        5100  Bead:      20 positions{angstrom}  cell{angstrom}
       E  9.96589e+00  1.73930e+01  2.92420e+01
       E -7.29545e+01  8.30850e+00 -1.99858e+01
       E -7.24394e+00 -7.37767e+00 -3.71783e+01
3
# CELL(abcABC): 1322.94304  1322.94304  1322.94304    90.00000    90.00000    90.00000  Step:        5200  Bead:      20 positions{angstrom}  cell{angstrom}
       E -3.64986e+01  4.30292e+00  8.67363e+00
       E -3.41828e+01  1.06086e+01 -4.48160e+01
       E  7.21425e+00  9.77592e+00 -1.30929e+01
3
# CELL(abcABC): 1322.94304  1322.94304  1322.94304    90.00000    90.00000    90.00000  Step:        5300  Bead:      20 positions{angstrom}  cell{angstrom}
       E -1.10703e+01  6.95048e+00  1.74282e+01
       E -1.43247e+01  5.64548e+01 -1.48996e+01
       E -4.55125e+01  4.18742e+01  2.05368e+01
3
# CELL(abcABC): 1322.94304  1322.94304  1322.94304    90.00000    90.00000    90.00000  Step:        5400  Bead:      20 positions{angstrom}  cell{angstrom}
       E  1.37647e+01  7.91628e+00  8.11171e+00
       E  7.31135e+00  1.90300e+01  1.18565e+01
       E -2.76202e+01  3.07643e+01  4.20048e+01
3
# CELL(abcABC): 1322.94304  1322.94304  1322.94304    90.00000    90.00000    90.00000  Step:        5500  Bead:      20 positions{angstrom}  cell{angstrom}
       E  3.97644e+01 -1.83429e+01 -3.73388e+01
       E -3.69912e+01  2.94054e+01  3.84054e+00
       E -3.88223e+01 -1.40636e+01  4.35191e+01
3
# CELL(abcABC): 1322.94304  1322.94304  1322.94304    90.00000    90.00000    90.00000  Step:        5600  Bead:      20 positions{angstrom}  cell{angstrom}
       E  3.16425e+00  3.42247e+01 -2.50700e+01
       E -6.17548e+01  8.92372e+00  9.10017e+00
       E -4.29451e+01  7.84776e-01  3.12998e+01
3
# CELL(abcABC): 1322.94304  1322.94304  1322.94304    90.00000    90.00000    90.00000  Step:        5700  Bead:      20 positions{angstrom}  cell{angstrom}
       E  1.55300e+01 -2.02083e+01 -3.95255e+01
       E -7.18282e+01  2.08859e+00 -1.84034e+01
       E -6.17325e+01 -1.42702e+00 -9.37813e+00
3
# CELL(abcABC): 1322.94304  1322.94304  1322.94304    90.00000    90.00000    90.00000  Step:        5800  Bead:      20 positions{angstrom}  cell{angstrom}
       E  3.80522e+00  1.27109e+01 -1.18527e+01
       E -4.31380e+01  3.08789e+01 -3.47612e+01
       E -3.23767e+01  2.58236e+01  2.12466e+01
3
# CELL(abcABC): 1322.94304  1322.94304  1322.94304    90.00000    90.00000    90.00000  Step:        5900  Bead:      20 positions{angstrom}  cell{angstrom}
       E  1.92223e+01  1.58527e+01 -1.60745e+01
       E -2.70998e+01  4.80092e+00  3.26429e+01
       E -7.00462e+00 -1.49685e+01 -5.48864e+01
3
# CELL(abcABC): 1322.94304  1322.94304  1322.94304    90.00000    90.00000    90.00000  Step:        6000  Bead:      20 positions{angstrom}  cell{angstrom}
       E -6.52179e-01 -1.49391e+01 -1.59242e+01
       E  1.36527e+01  1.25153e+01  2.31667e+01
       E  2.27399e+00 -2.38734e+01 -1.89039e+01
3
# CELL(abcABC): 1322.94304  1322.94304  1322.94304    90.00000    90.00000    90.00000  Step:        6100  Bead:      20 positions{angstrom}  cell{angstrom}
       E -5.44152e+00 -1.72037e+01 -1.18799e+01
       E  6.66492e+01  3.44343e+01  1.71285e+01
       E  1.94508e+01 -3.66509e+01 -1.41166e+01
3
# CELL(abcABC): 1322.94304  1322.94304  1322.94304    90.00000    90.00000    90.00000  Step:        6200  Bead:      20 positions{angstrom}  cell{angstrom}
       E -8.84002e+00 -3.60306e+01 -9.79806e+01
       E  1.02554e+02  5.17057e+01  1.87227e+01
       E  1.08637e+01 -4.80985e+01  5.47453e+00
3
# CELL(abcABC): 1322.94304  1322.94304  1322.94304    90.00000    90.00000    90.00000  Step:        6300  Bead:      20 positions{angstrom}  cell{angstrom}
       E  1.90829e+01 -4.69848e+01 -1.17054e+02
       E  7.58908e+01  9.04910e+00 -3.31407e+01
       E  2.54126e+01 -4.00392e+01 -6.34525e+00
3
# CELL(abcABC): 1322.94304  1322.94304  1322.94304    90.00000    90.00000    90.00000  Step:        6400  Bead:      20 positions{angstrom}  cell{angstrom}
       E  5.42416e+01 -4.05627e+01 -1.38690e+02
       E  5.01967e+01 -3.87420e+01 -4.15866e+01
       E  3.31846e+01 -9.17239e+00 -2.27585e+01
3
# CELL(abcABC): 1322.94304  1322.94304  1322.94304    90.00000    90.00000    90.00000  Step:        6500  Bead:      20 positions{angstrom}  cell{angstrom}
       E  4.22119e+01 -4.68041e+01 -9.84010e+01
       E  2.19933e+01  4.81557e+01 -6.71012e+01
       E  5.34230e+01 -2.32369e+01  6.46517e+00
3
# CELL(abcABC): 1322.94304  1322.94304  1322.94304    90.00000    90.00000    90.00000  Step:        6600  Bead:      20 positions{angstrom}  cell{angstrom}
       E  1.18676e+01 -9.31988e+01 -8.55055e+01
       E  2.07926e+01 -1.22918e+01 -3.77628e+01
       E  3.82369e+01 -9.64713e+00  1.46313e+00
3
# CELL(abcABC): 1322.94304  1322.94304  1322.94304    90.00000    90.00000    90.00000  Step:        6700  Bead:      20 positions{angstrom}  cell{angstrom}
       E -2.69106e+01 -1.16401e+02 -6.96647e+01
       E  3.53019e+01  9.90601e+00 -1.13808e+01
       E  3.95814e+01 -9.89188e+00  3.56798e+01
3
# CELL(abcABC): 1322.94304  1322.94304  1322.94304    90.00000    90.00000    90.00000  Step:        6800  Bead:      20 positions{angstrom}  cell{angstrom}
       E  3.12998e+00 -1.16005e+02 -7.74465e+01
       E  3.87619e+01 -3.73985e+01 -4.67788e+01
       E  8.35783e+00 -2.38737e+01 -1.03041e+01
3
# CELL(abcABC): 1322.94304  1322.94304  1322.94304    90.00000    90.00000    90.00000  Step:        6900  Bead:      20 positions{angstrom}  cell{angstrom}
       E  3.31286e+01 -6.30714e+01 -2.96906e+01
       E  2.96707e+01 -2.88562e+01 -3.97647e+01
       E -1.75759e+01  4.74029e+00 -2.04123e+01
3
# CELL(abcABC): 1322.94304  1322.94304  1322.94304    90.00000    90.00000    90.00000  Step:        7000  Bead:      20 positions{angstrom}  cell{angstrom}
       E  4.11241e+01 -4.54191e+01 -4.36666e+00
       E  3.77034e+01  1.05272e+01 -3.60134e+01
       E  3.08951e+01  7.67014e-01 -2.43956e+01
3
# CELL(abcABC): 1322.94304  1322.94304  1322.94304    90.00000    90.00000    90.00000  Step:        7100  Bead:      20 positions{angstrom}  cell{angstrom}
       E  3.81302e+01 -1.56341e+01 -2.47491e+01
       E  6.21837e+00  2.48834e+01  3.56077e+00
       E  4.76174e+01  1.07676e+01 -4.96941e+01
3
# CELL(abcABC): 1322.94304  1322.94304  1322.94304    90.00000    90.00000    90.00000  Step:        7200  Bead:      20 positions{angstrom}  cell{angstrom}
       E  3.95071e+01 -3.35295e+01 -4.12684e+01
       E -4.11356e+01  2.59876e+01  2.32977e+01
       E  7.34333e+01  5.09258e+01 -2.94407e+01
3
# CELL(abcABC): 1322.94304  1322.94304  1322.94304    90.00000    90.00000    90.00000  Step:        7300  Bead:      20 positions{angstrom}  cell{angstrom}
       E  3.78622e+01 -4.31089e+01 -3.11819e+01
       E -3.51886e+01  3.24527e+01  2.31152e+01
       E  5.29543e+01  5.13707e+01 -2.12057e+01
3
# CELL(abcABC): 1322.94304  1322.94304  1322.94304    90.00000    90.00000    90.00000  Step:        7400  Bead:      20 positions{angstrom}  cell{angstrom}
       E  3.57206e+00 -3.03684e+01 -3.39887e+01
       E -3.39774e+01 -1.05652e+00 -2.45454e+00
       E  5.46544e+01  5.44043e+01 -1.49920e+01
3
# CELL(abcABC): 1322.94304  1322.94304  1322.94304    90.00000    90.00000    90.00000  Step:        7500  Bead:      20 positions{angstrom}  cell{angstrom}
       E  2.53342e+01 -7.36743e+01 -6.78631e+01
       E -4.63717e+01 -6.81669e+00  2.31471e+01
       E  7.01422e+01  1.94774e+01 -9.12917e+00
3
# CELL(abcABC): 1322.94304  1322.94304  1322.94304    90.00000    90.00000    90.00000  Step:        7600  Bead:      20 positions{angstrom}  cell{angstrom}
       E -1.04195e+01 -6.11096e+01 -6.03951e+01
       E -4.90284e+01 -5.93770e+01 -9.50767e+00
       E  2.58962e+01  1.63122e+01 -2.51218e+01
3
# CELL(abcABC): 1322.94304  1322.94304  1322.94304    90.00000    90.00000    90.00000  Step:        7700  Bead:      20 positions{angstrom}  cell{angstrom}
       E  7.74436e+00 -7.83749e+01 -3.16151e+01
       E -7.16715e+00 -4.68255e+01 -1.14799e+01
       E  5.51412e+01 -2.86218e+01 -3.25139e+01
3
# CELL(abcABC): 1322.94304  1322.94304  1322.94304    90.00000    90.00000    90.00000  Step:        7800  Bead:      20 positions{angstrom}  cell{angstrom}
       E  6.13069e+00 -7.64837e+01 -6.58566e+01
       E -4.85986e+00 -2.02131e+01 -1.67679e+01
       E  4.13863e+01 -1.72415e+01 -1.42150e+01
3
# CELL(abcABC): 1322.94304  1322.94304  1322.94304    90.00000    90.00000    90.00000  Step:        7900  Bead:      20 positions{angstrom}  cell{angstrom}
       E  1.76683e+01 -6.08267e+01 -2.24317e+01
       E  8.67075e+00 -2.31252e+01 -4.88956e+01
       E -1.82808e+01 -1.51732e+01 -4.33462e+01
3
# CELL(abcABC): 1322.94304  1322.94304  1322.94304    90.00000    90.00000    90.00000  Step:        8000  Bead:      20 positions{angstrom}  cell{angstrom}
       E  9.56039e+00 -1.54948e+00 -2.21288e+01
       E -3.03833e+01  6.25194e+00 -3.79103e+01
       E  3.47152e+01 -3.25820e+00 -6.78781e+01
3
# CELL(abcABC): 1322.94304  1322.94304  1322.94304    90.00000    90.00000    90.00000  Step:        8100  Bead:      20 positions{angstrom}  cell{angstrom}
       E -1.44520e+00  1.68596e+01 -1.94160e+01
       E -3.01841e+01 -8.78574e+00 -2.93543e+01
       E  8.35441e+00 -4.49268e+00 -1.22081e+01
3
# CELL(abcABC): 1322.94304  1322.94304  1322.94304    90.00000    90.00000    90.00000  Step:        8200  Bead:      20 positions{angstrom}  cell{angstrom}
       E -2.23978e+01  2.75477e+01 -5.02404e+01
       E -3.23496e+01 -2.04012e+01 -1.31423e+01
       E  4.09102e+00 -1.95360e+01  3.81010e+01
3
# CELL(abcABC): 1322.94304  1322.94304  1322.94304    90.00000    90.00000    90.00000  Step:        8300  Bead:      20 positions{angstrom}  cell{angstrom}
       E -4.46061e+00  4.49680e+01  1.72455e+01
       E -2.02456e+01  2.67286e+00 -2.28321e+01
       E -1.42603e+01 -5.78420e+01  6.04089e+01
3
# CELL(abcABC): 1322.94304  1322.94304  1322.94304    90.00000    90.00000    90.00000  Step:        8400  Bead:      20 positions{angstrom}  cell{angstrom}
       E -1.15446e+01  2.27407e+01  7.07952e+00
       E  5.02044e+00  2.01666e+01 -1.99266e+01
       E  4.72886e+00 -5.85169e+01  3.78803e+01
3
# CELL(abcABC): 1322.94304  1322.94304  1322.94304    90.00000    90.00000    90.00000  Step:        8500  Bead:      20 positions{angstrom}  cell{angstrom}
       E -3.87467e+00 -3.09718e+01 -2.76457e+01
       E  9.13364e+00  3.02590e+01 -2.15603e+01
       E  1.70386e+01 -2.89328e+01  4.57278e+01
3
# CELL(abcABC): 1322.94304  1322.94304  1322.94304    90.00000    90.00000    90.00000  Step:        8600  Bead:      20 positions{angstrom}  cell{angstrom}
       E -5.23501e+00 -3.66465e+01 -1.98609e+01
       E  3.11427e+00 -8.14962e+00 -4.07294e+01
       E  4.09746e+01 -2.60779e+01  6.41996e+01
3
# CELL(abcABC): 1322.94304  1322.94304  1322.94304    90.00000    90.00000    90.00000  Step:        8700  Bead:      20 positions{angstrom}  cell{angstrom}
       E -1.35403e+01  3.42981e+00  1.08503e+01
       E  1.47315e+01  3.73040e+00  1.67937e+01
       E  4.57751e+01  1.70053e+00  5.01782e+01
3
# CELL(abcABC): 1322.94304  1322.94304  1322.94304    90.00000    90.00000    90.00000  Step:        8800  Bead:      20 positions{angstrom}  cell{angstrom}
       E -1.48246e+01  3.27186e+01 -9.13191e+00
       E -6.60863e+00 -6.99114e+00  1.49216e+01
       E  5.66751e+01 -7.00798e+01  1.46795e+01
3
# CELL(abcABC): 1322.94304  1322.94304  1322.94304    90.00000    90.00000    90.00000  Step:        8900  Bead:      20 positions{angstrom}  cell{angstrom}
       E -5.14833e+01  2.54805e+01  4.20694e+01
       E -5.33970e-01  5.49140e+00  1.57310e+01
       E  8.88391e+01 -5.01071e+01  2.18726e+00
3
# CELL(abcABC): 1322.94304  1322.94304  1322.94304    90.00000    90.00000    90.00000  Step:        9000  Bead:      20 positions{angstrom}  cell{angstrom}
       E -5.07778e+01  1.73318e+01  3.78329e+01
       E  7.53256e+00  1.33617e+01  7.69624e+01
       E  3.56006e+01 -3.93642e+01  2.96182e+01
3
# CELL(abcABC): 1322.94304  1322.94304  1322.94304    90.00000    90.00000    90.00000  Step:        9100  Bead:      20 positions{angstrom}  cell{angstrom}
       E -2.55954e+01  2.19085e+01  1.18544e+01
       E  2.75512e+01 -3.85672e+01  5.98616e+01
       E  2.61620e+01 -7.25504e+00 -5.14968e+00
3
# CELL(abcABC): 1322.94304  1322.94304  1322.94304    90.00000    90.00000    90.00000  Step:        9200  Bead:      20 positions{angstrom}  cell{angstrom}
       E -1.95614e+00  2.57311e+01  2.60938e+00
       E -1.16677e+01 -2.83492e+00  5.87325e+01
       E  3.00091e+01 -3.87489e+01 -1.07444e+01
3
# CELL(abcABC): 1322.94304  1322.94304  1322.94304    90.00000    90.00000    90.00000  Step:        9300  Bead:      20 positions{angstrom}  cell{angstrom}
       E  5.84913e+00 -2.92688e-02 -2.37845e+01
       E -4.59606e+01  3.09099e+00  2.75271e+01
       E -4.86019e+00 -3.00211e+01 -8.72085e-01
3
# CELL(abcABC): 1322.94304  1322.94304  1322.94304    90.00000    90.00000    90.00000  Step:        9400  Bead:      20 positions{angstrom}  cell{angstrom}
       E -8.64026e-01  3.04902e+01 -5.30767e+01
       E -4.03618e+01 -7.25173e+00  4.29294e+01
       E -1.43531e+01 -5.06958e+01  1.52672e+01
3
# CELL(abcABC): 1322.94304  1322.94304  1322.94304    90.00000    90.00000    90.00000  Step:        9500  Bead:      20 positions{angstrom}  cell{angstrom}
       E  3.03971e+01  6.41043e+01 -4.88352e+01
       E -7.18651e+00 -4.83404e+01  2.57973e+01
       E  8.61446e+00 -2.43480e+01  3.43469e+01
3
# CELL(abcABC): 1322.94304  1322.94304  1322.94304    90.00000    90.00000    90.00000  Step:        9600  Bead:      20 positions{angstrom}  cell{angstrom}
       E  1.06062e+01  2.75509e+01 -5.01867e+01
       E  4.58806e+01 -9.31862e+01 -2.28477e+00
       E -3.62973e+00 -1.16582e+01 -3.73751e+00
3
# CELL(abcABC): 1322.94304  1322.94304  1322.94304    90.00000    90.00000    90.00000  Step:        9700  Bead:      20 positions{angstrom}  cell{angstrom}
       E -1.04585e+01 -3.58493e+01 -4.83500e+01
       E  2.04537e+01 -7.62457e+01  8.39240e+00
       E  6.88940e+00 -6.68675e+00 -6.01184e+00
3
# CELL(abcABC): 1322.94304  1322.94304  1322.94304    90.00000    90.00000    90.00000  Step:        9800  Bead:      20 positions{angstrom}  cell{angstrom}
       E -2.81948e+01 -6.44518e+01 -3.20144e+01
       E -1.22065e+00 -7.80663e+01  5.42352e-01
       E -1.53374e+01 -1.44396e+01  3.98171e+01
3