3
# CELL(abcABC): 1322.94304  1322.94304  1322.94304    90.00000    90.00000    90.00000  Step:           0  Bead:      16 positions{angstrom}  cell{angstrom}
       E  0.00000e+00  0.00000e+00  0.00000e+00
       E  0.00000e+00  0.00000e+00  0.00000e+00
       E  0.00000e+00  0.00000e+00  0.00000e+00
3
# CELL(abcABC): 1322.94304  1322.94304  1322.94304    90.00000    90.00000    90.00000  Step:         100  Bead:      16 positions{angstrom}  cell{angstrom}
       E  2.14831e+01  1.27070e+00  2.19787e+01
       E  1.23076e+01 -2.35754e+01  3.23955e+00
       E -2.04223e+01  8.02166e+00 -2.34990e+01
3
# CELL(abcABC): 1322.94304  1322.94304  1322.94304    90.00000    90.00000    90.00000  Step:         200  Bead:      16 positions{angstrom}  cell{angstrom}
       E  1.92295e+01  1.98485e+01  1.70575e+01
       E -3.10376e+00 -2.56223e+01 -1.42852e+01
       E -1.27845e+01  1.30968e+01 -2.96995e+01
3
# CELL(abcABC): 1322.94304  1322.94304  1322.94304    90.00000    90.00000    90.00000  Step:         300  Bead:      16 positions{angstrom}  cell{angstrom}
       E -2.08980e+01  6.08805e+00  1.43378e+01
       E  2.05293e+01 -4.05423e+00 -2.11670e+01
       E -2.22581e+01  3.36594e+01 -1.52009e+01
3
# CELL(abcABC): 1322.94304  1322.94304  1322.94304    90.00000    90.00000    90.00000  Step:         400  Bead:      16 positions{angstrom}  cell{angstrom}
       E -1.88798e+01  4.14527e+01  8.92740e+00
       E  2.24311e+01  1.09243e+01 -1.97752e+01
       E -3.46373e+01  2.41306e+01  1.36777e+01
3
# CELL(abcABC): 1322.94304  1322.94304  1322.94304    90.00000    90.00000    90.00000  Step:         500  Bead:      16 positions{angstrom}  cell{angstrom}
       E -3.40891e+01  1.05997e+01  1.40549e+01
       E  4.73343e+01  1.19075e+01 -9.93951e+00
       E -1.00645e+01 -8.90277e+00  2.48125e+01
3
# CELL(abcABC): 1322.94304  1322.94304  1322.94304    90.00000    90.00000    90.00000  Step:         600  Bead:      16 positions{angstrom}  cell{angstrom}
       E -2.28214e+01 -2.63657e+01 -1.64326e+01
       E  3.04167e+01 -4.31760e+00  7.85228e-01
       E -7.81660e+00  4.07654e+00  1.40764e+01
3
# CELL(abcABC): 1322.94304  1322.94304  1322.94304    90.00000    90.00000    90.00000  Step:         700  Bead:      16 positions{angstrom}  cell{angstrom}
       E -2.13047e+01  6.36126e+00  1.09954e+01
       E  3.23211e+01  4.62920e+01  1.65892e+00
       E -3.45434e+01 -2.04110e+01  5.63607e+00
3
# CELL(abcABC): 1322.94304  1322.94304  1322.94304    90.00000    90.00000    90.00000  Step:         800  Bead:      16 positions{angstrom}  cell{angstrom}
       E  5.67684e+00  1.70093e+01  1.18781e+01
       E  1.38527e+01  3.42781e+01  1.72909e+01
       E -4.74383e+01 -2.10941e+01  5.17189e+01
3
# CELL(abcABC): 1322.94304  1322.94304  1322.94304    90.00000    90.00000    90.00000  Step:         900  Bead:      16 positions{angstrom}  cell{angstrom}
       E -1.64874e+01  3.89757e+01 -1.37213e+01
       E  2.83977e+01  2.30162e+01 -1.00077e+01
       E -4.61458e+01 -7.89222e+00  4.90127e+01
3
# CELL(abcABC): 1322.94304  1322.94304  1322.94304    90.00000    90.00000    90.00000  Step:        1000  Bead:      16 positions{angstrom}  cell{angstrom}
       E -7.38293e+00  1.16748e+01 -4.41926e+01
       E  3.47122e+01 -1.16256e+01 -3.44270e+01
       E -5.84000e+01 -2.12612e+01  4.93357e+01
3
# CELL(abcABC): 1322.94304  1322.94304  1322.94304    90.00000    90.00000    90.00000  Step:        1100  Bead:      16 positions{angstrom}  cell{angstrom}
       E  2.25107e+01 -1.92167e+00 -4.97145e+01
       E  9.13807e+00  1.74631e+00 -4.23329e+01
       E -3.87168e+01  4.62946e+01  3.40114e+01
3
# CELL(abcABC): 1322.94304  1322.94304  1322.94304    90.00000    90.00000    90.00000  Step:        1200  Bead:      16 positions{angstrom}  cell{angstrom}
       E  1.06307e+01  1.90796e+01 -7.78077e+01
       E  2.23779e+01 -4.99820e+01 -2.29369e+01
       E -9.84139e+00  3.61071e+01  4.97917e+01
3
# CELL(abcABC): 1322.94304  1322.94304  1322.94304    90.00000    90.00000    90.00000  Step:        1300  Bead:      16 positions{angstrom}  cell{angstrom}
       E -8.67260e+00  3.06486e+01 -8.05492e+01
       E  5.50966e+01 -2.65904e+01 -4.22818e+01
       E -6.05224e+00  5.75530e+00 -1.45085e+00
3
# CELL(abcABC): 1322.94304  1322.94304  1322.94304    90.00000    90.00000    90.00000  Step:        1400  Bead:      16 positions{angstrom}  cell{angstrom}
       E -1.43779e+01  4.69546e+01 -5.76405e+01
       E  8.33877e+00 -2.22781e+01 -4.15664e+01
       E  1.48835e+01 -2.26299e+00  4.61817e+00
3
# CELL(abcABC): 1322.94304  1322.94304  1322.94304    90.00000    90.00000    90.00000  Step:        1500  Bead:      16 positions{angstrom}  cell{angstrom}
       E -1.59553e+00  1.93858e+01 -4.46281e+01
       E -2.16642e+01  1.44816e+01 -3.42787e+01
       E -3.96827e+00  1.60468e+01  1.97925e+01
3
# CELL(abcABC): 1322.94304  1322.94304  1322.94304    90.00000    90.00000    90.00000  Step:        1600  Bead:      16 positions{angstrom}  cell{angstrom}
       E -2.98229e+01  5.80888e+01 -4.03842e+01
       E  1.47081e+01  3.48115e+01 -3.60756e+01
       E -2.79525e+01  2.93616e+01  2.93078e+01
3
# CELL(abcABC): 1322.94304  1322.94304  1322.94304    90.00000    90.00000    90.00000  Step:        1700  Bead:      16 positions{angstrom}  cell{angstrom}
       E  2.85663e+01  2.44261e+01  3.65882e+01
       E -1.25675e+01  4.63118e+01  9.69915e+00
       E -4.28541e+01  5.05389e+01  1.67218e+01
3
# CELL(abcABC): 1322.94304  1322.94304  1322.94304    90.00000    90.00000    90.00000  Step:        1800  Bead:      16 positions{angstrom}  cell{angstrom}
       E  1.33405e+01  2.40126e+01  2.72389e+01
       E -4.38624e+01  3.93787e+01  2.00150e+01
       E -8.42904e+01  8.45120e+01  5.03760e+01
3
# CELL(abcABC): 1322.94304  1322.94304  1322.94304    90.00000    90.00000    90.00000  Step:        1900  Bead:      16 positions{angstrom}  cell{angstrom}
       E  6.43850e+00  2.15174e+01  2.81157e+01
       E -5.55067e+01  3.27794e+01  3.02003e+00
       E -6.19487e+01  6.07917e+01  3.56814e+01
3
# CELL(abcABC): 1322.94304  1322.94304  1322.94304    90.00000    90.00000    90.00000  Step:        2000  Bead:      16 positions{angstrom}  cell{angstrom}
       E -3.17657e+01 -2.24563e+01  4.97681e+01
       E -4.08486e+01  4.29023e+01  2.01608e+01
       E -9.65848e+01  8.01641e+01  5.14767e+01
3
# CELL(abcABC): 1322.94304  1322.94304  1322.94304    90.00000    90.00000    90.00000  Step:        2100  Bead:      16 positions{angstrom}  cell{angstrom}
       E -3.87029e+01 -9.90994e+00  5.68488e+01
       E -4.35519e+01  2.67615e+01  1.14374e+01
       E -6.28795e+01  7.38595e+01  3.09433e+01
3
# CELL(abcABC): 1322.94304  1322.94304  1322.94304    90.00000    90.00000    90.00000  Step:        2200  Bead:      16 positions{angstrom}  cell{angstrom}
       E -5.06262e+01 -7.74015e+00  6.23465e+01
       E -1.47838e+01 -3.54420e+01 -1.76480e+01
       E -3.10683e+01  2.30196e+01  7.34492e+00
3
# CELL(abcABC): 1322.94304  1322.94304  1322.94304    90.00000    90.00000    90.00000  Step:        2300  Bead:      16 positions{angstrom}  cell{angstrom}
       E -6.22165e+01 -2.57121e+01  6.96927e+01
       E -2.65066e+00 -2.75740e+01  2.41240e+00
       E -1.13574e+00  6.12411e+00  3.43428e+01
3
# CELL(abcABC): 1322.94304  1322.94304  1322.94304    90.00000    90.00000    90.00000  Step:        2400  Bead:      16 positions{angstrom}  cell{angstrom}
       E -6.42728e+01  1.57172e+01  1.08828e+01
       E  2.60873e+00 -1.10710e+01 -4.20705e+00
       E -5.86165e+00 -1.62703e+00  1.78225e+01
3
# CELL(abcABC): 1322.94304  1322.94304  1322.94304    90.00000    90.00000    90.00000  Step:        2500  Bead:      16 positions{angstrom}  cell{angstrom}
       E -3.81199e+01  3.41018e+01  3.72244e+01
       E  2.40005e+01 -4.59746e+01 -6.24561e+01
       E  3.46959e+01 -2.54487e+01  2.78698e+01
3
# CELL(abcABC): 1322.94304  1322.94304  1322.94304    90.00000    90.00000    90.00000  Step:        2600  Bead:      16 positions{angstrom}  cell{angstrom}
       E -2.86240e+01 -4.94584e+00  3.03695e+01
       E -5.89388e+01 -6.36073e+01 -5.62940e+01
       E  1.03231e+01 -4.46960e+01  3.27113e+01
3
# CELL(abcABC): 1322.94304  1322.94304  1322.94304    90.00000    90.00000    90.00000  Step:        2700  Bead:      16 positions{angstrom}  cell{angstrom}
       E -3.39155e+01  1.32930e+01  9.58578e+00
       E -3.82332e+01 -4.22315e+01 -2.44616e+01
       E  4.37149e+01 -8.29053e+00  2.33266e+01
3
# CELL(abcABC): 1322.94304  1322.94304  1322.94304    90.00000    90.00000    90.00000  Step:        2800  Bead:      16 positions{angstrom}  cell{angstrom}
       E -2.39310e+01  2.35583e+00  2.05218e+01
       E -5.92807e+01 -7.79508e+01 -3.47440e+01
       E  1.48952e+01 -5.61156e+00  2.30214e+01
3
# CELL(abcABC): 1322.94304  1322.94304  1322.94304    90.00000    90.00000    90.00000  Step:        2900  Bead:      16 positions{angstrom}  cell{angstrom}
       E -6.63058e+01  1.00250e+01  4.69627e+01
       E -7.24596e+01 -7.47872e+01 -4.94431e+01
       E -1.37644e+01 -7.06780e+00  3.59784e+01
3
# CELL(abcABC): 1322.94304  1322.94304  1322.94304    90.00000    90.00000    90.00000  Step:        3000  Bead:      16 positions{angstrom}  cell{angstrom}
       E -4.88293e+00  9.39841e+00  6.15582e+01
       E -5.78478e+01 -7.34954e+01  1.34781e+01
       E -3.59740e+00  2.60216e+01  4.35336e+00
3
# CELL(abcABC): 1322.94304  1322.94304  1322.94304    90.00000    90.00000    90.00000  Step:        3100  Bead:      16 positions{angstrom}  cell{angstrom}
       E -2.18406e+01 -1.05448e+01  3.12697e+01
       E -9.78899e+01 -4.63954e+01 -1.11673e+00
       E  9.89305e+00  5.59118e+01  1.53951e+01
3
# CELL(abcABC): 1322.94304  1322.94304  1322.94304    90.00000    90.00000    90.00000  Step:        3200  Bead:      16 positions{angstrom}  cell{angstrom}
       E  8.98672e+00  2.53043e+01 -1.03008e+01
       E -9.76193e+01 -1.80374e+01  4.99725e+01
       E  5.06248e+01  4.97972e+01  2.74388e+01
3
# CELL(abcABC): 1322.94304  1322.94304  1322.94304    90.00000    90.00000    90.00000  Step:        3300  Bead:      16 positions{angstrom}  cell{angstrom}
       E  2.90253e+01  1.14968e+01 -9.49087e+00
       E -7.97008e+01 -5.46227e+01  5.76421e+01
       E -1.83274e+01  8.93432e+01  6.20728e+01
3
# CELL(abcABC): 1322.94304  1322.94304  1322.94304    90.00000    90.00000    90.00000  Step:        3400  Bead:      16 positions{angstrom}  cell{angstrom}
       E -3.73726e+01  1.41229e+01  3.27231e+01
       E -7.95495e+01 -4.02051e+01  7.24142e+01
       E -3.42269e+01  8.73735e+01  6.07131e+01
3
# CELL(abcABC): 1322.94304  1322.94304  1322.94304    90.00000    90.00000    90.00000  Step:        3500  Bead:      16 positions{angstrom}  cell{angstrom}
       E -4.47372e+01  4.17386e+01  4.05105e+01
       E -3.00287e+01 -2.69653e+01  2.06511e+01
       E -7.90026e+00  2.57543e+01  5.34632e+01
3
# CELL(abcABC): 1322.94304  1322.94304  1322.94304    90.00000    90.00000    90.00000  Step:        3600  Bead:      16 positions{angstrom}  cell{angstrom}
       E -4.49174e+01  3.74158e+01  2.02989e+01
       E -9.68317e+00 -1.63326e+01  2.00600e+01
       E -5.27261e+00  2.42626e+01  2.31390e+01
3
# CELL(abcABC): 1322.94304  1322.94304  1322.94304    90.00000    90.00000    90.00000  Step:        3700  Bead:      16 positions{angstrom}  cell{angstrom}
       E -4.77052e+01  5.81209e+00 -1.01805e+01
       E -2.88419e+01 -1.50514e+01  1.11126e+01
       E -5.61783e+01  3.95423e+01 -7.36034e+00
3
# CELL(abcABC): 1322.94304  1322.94304  1322.94304    90.00000    90.00000    90.00000  Step:        3800  Bead:      16 positions{angstrom}  cell{angstrom}
       E -8.17261e+01  1.29147e+01 -2.61900e+01
       E -1.53787e+01 -5.86432e+01 -1.58666e+01
       E -8.51494e+01  4.28969e+00 -1.75192e+01
3
# CELL(abcABC): 1322.94304  1322.94304  1322.94304    90.00000    90.00000    90.00000  Step:        3900  Bead:      16 positions{angstrom}  cell{angstrom}
       E -8.96294e+01  1.64653e+01 -4.42137e+01
       E -3.37861e+01 -3.51818e+01 -5.35031e+00
       E -4.37773e+01  9.31302e+00 -3.03975e+01
3
# CELL(abcABC): 1322.94304  1322.94304  1322.94304    90.00000    90.00000    90.00000  Step:        4000  Bead:      16 positions{angstrom}  cell{angstrom}
       E -8.80247e+01  3.07311e+01 -3.79438e+01
       E -2.53190e+01 -5.79597e+00  4.77372e+01
       E -2.71133e+01  1.97296e+01  3.44037e+00
3
# CELL(abcABC): 1322.94304  1322.94304  1322.94304    90.00000    90.00000    90.00000  Step:        4100  Bead:      16 positions{angstrom}  cell{angstrom}
       E -3.83117e+01  5.39929e+01 -5.00920e+01
       E -5.90959e+01  3.52982e+01  3.36052e+01
       E -4.54705e+01 -1.97448e+01  1.53307e+01
3
# CELL(abcABC): 1322.94304  1322.94304  1322.94304    90.00000    90.00000    90.00000  Step:        4200  Bead:      16 positions{angstrom}  cell{angstrom}
       E -3.32364e+01  3.13085e+00 -7.57448e+01
       E -5.06937e+01  2.78501e+01  3.59501e+01
       E  1.20993e+00 -5.17833e-02  5.05762e+01
3
# CELL(abcABC): 1322.94304  1322.94304  1322.94304    90.00000    90.00000    90.00000  Step:        4300  Bead:      16 positions{angstrom}  cell{angstrom}
       E -5.30836e+01  4.59494e+01 -4.93950e+01
       E -4.03565e+01  5.84705e+01  5.04274e+01
       E -1.97952e+01 -3.52767e+00  5.11181e+01
3
# CELL(abcABC): 1322.94304  1322.94304  1322.94304    90.00000    90.00000    90.00000  Step:        4400  Bead:      16 positions{angstrom}  cell{angstrom}
       E -3.13193e+01  5.79541e+00 -5.75760e+01
       E -2.91948e+01  5.82307e+01  1.01564e+01
       E -2.91356e+01 -1.58137e+01 -5.92156e+00
3
# CELL(abcABC): 1322.94304  1322.94304  1322.94304    90.00000    90.00000    90.00000  Step:        4500  Bead:      16 positions{angstrom}  cell{angstrom}
       E -7.05318e+01  2.10273e+01 -8.34169e+01
       E -4.95468e+01  9.10976e+01 -7.39884e+00
       E -1.52879e+01 -1.24481e+01  1.48714e+01
3
# CELL(abcABC): 1322.94304  1322.94304  1322.94304    90.00000    90.00000    90.00000  Step:        4600  Bead:      16 positions{angstrom}  cell{angstrom}
       E -1.47476e+01  8.84739e+00 -7.79830e+01
       E -4.84426e+01  9.47347e+01 -2.83876e+01
       E -1.46130e+01 -5.78113e+00 -1.43776e+01
3
# CELL(abcABC): 1322.94304  1322.94304  1322.94304    90.00000    90.00000    90.00000  Step:        4700  Bead:      16 positions{angstrom}  cell{angstrom}
       E -1.24820e+01  3.72391e+01 -6.38189e+01
       E -5.31257e+01  6.00347e+01 -2.66122e+01
       E  3.35825e+01 -2.51200e+01 -2.04491e+00
3
# CELL(abcABC): 1322.94304  1322.94304  1322.94304    90.00000    90.00000    90.00000  Step:        4800  Bead:      16 positions{angstrom}  cell{angstrom}
       E -2.17987e+01  8.12931e+00 -2.84569e+01
       E -4.97832e+01  1.88698e+01 -2.07555e+01
       E  1.76100e+01 -7.16489e+00  1.28195e+01
3
# CELL(abcABC): 1322.94304  1322.94304  1322.94304    90.00000    90.00000    90.00000  Step:        4900  Bead:      16 positions{angstrom}  cell{angstrom}
       E  1.70926e+01  2.95060e+01  8.56965e+00
       E -2.96877e+01  1.87439e+01 -2.19157e+01
       E  2.94685e+01  7.40174e+00  5.47606e+00
3
# CELL(abcABC): 1322.94304  1322.94304  1322.94304    90.00000    90.00000    90.00000  Step:        5000  Bead:      16 positions{angstrom}  cell{angstrom}
       E  1.66890e+01 -1.43155e+01  1.33133e+01
       E -3.32767e+01  7.60932e-01 -4.92702e+01
       E  2.36534e+01 -1.65617e+01 -7.29848e+00
3
# CELL(abcABC): 1322.94304  1322.94304  1322.94304    90.00000    90.00000    90.00000  Step:        5100  Bead:      16 positions{angstrom}  cell{angstrom}
       E  8.74866e+00  4.44408e+01  2.18730e+01
       E -3.46161e+01  2.65895e+01 -5.01754e+01
       E -9.84458e+00  1.46013e+00 -2.09767e+01
3
# CELL(abcABC): 1322.94304  1322.94304  1322.94304    90.00000    90.00000    90.00000  Step:        5200  Bead:      16 positions{angstrom}  cell{angstrom}
       E  1.81206e+01 -1.06773e+00  2.94065e+01
       E -3.83516e+01  1.42172e+01 -2.93392e+01
       E -2.39181e+01  4.23432e+01 -7.19734e-01
3
# CELL(abcABC): 1322.94304  1322.94304  1322.94304    90.00000    90.00000    90.00000  Step:        5300  Bead:      16 positions{angstrom}  cell{angstrom}
       E  9.55062e-01  1.04356e+01  3.76486e+01
       E -3.11998e+01  4.98948e+01  1.11600e+01
       E -4.94295e+01  4.51245e+01  2.29804e+01
3
# CELL(abcABC): 1322.94304  1322.94304  1322.94304    90.00000    90.00000    90.00000  Step:        5400  Bead:      16 positions{angstrom}  cell{angstrom}
       E  2.09030e+01 -3.69075e+01  2.55711e+01
       E -1.21378e+01  3.14604e+00  2.45816e+00
       E -3.64160e+01 -3.06500e+00  3.23455e+01
3
# CELL(abcABC): 1322.94304  1322.94304  1322.94304    90.00000    90.00000    90.00000  Step:        5500  Bead:      16 positions{angstrom}  cell{angstrom}
       E -3.01355e+00  2.38150e+01  7.44465e+00
       E -2.34343e+01 -6.38810e-01 -9.53268e+00
       E -2.48376e+01 -9.07300e+00  4.49476e+01
3
# CELL(abcABC): 1322.94304  1322.94304  1322.94304    90.00000    90.00000    90.00000  Step:        5600  Bead:      16 positions{angstrom}  cell{angstrom}
       E  5.35223e+00  3.20974e+00  7.49573e-01
       E -6.90153e+01 -1.25150e+01 -8.59428e+00
       E -4.09171e+01 -1.09063e+01  1.24734e+01
3
# CELL(abcABC): 1322.94304  1322.94304  1322.94304    90.00000    90.00000    90.00000  Step:        5700  Bead:      16 positions{angstrom}  cell{angstrom}
       E  3.55227e+01 -5.90942e+01 -1.40162e+01
       E -6.51640e+01  2.76754e+01  2.31932e+01
       E -2.28646e+01 -5.43705e+00  7.68635e+00
3
# CELL(abcABC): 1322.94304  1322.94304  1322.94304    90.00000    90.00000    90.00000  Step:        5800  Bead:      16 positions{angstrom}  cell{angstrom}
       E -4.85769e+00 -1.27254e+01  1.22521e-01
       E -3.71403e+01  3.28425e+01 -1.66187e+01
       E -4.32255e+01  1.23975e+01 -2.46977e+01
3
# CELL(abcABC): 1322.94304  1322.94304  1322.94304    90.00000    90.00000    90.00000  Step:        5900  Bead:      16 positions{angstrom}  cell{angstrom}
       E  2.33374e+01  1.77589e+01 -7.71253e+00
       E  2.63272e+00  2.50030e+01 -8.77621e-01
       E  1.03821e+00 -9.65671e+00 -2.34678e+01
3
# CELL(abcABC): 1322.94304  1322.94304  1322.94304    90.00000    90.00000    90.00000  Step:        6000  Bead:      16 positions{angstrom}  cell{angstrom}
       E  2.82559e+01 -2.11243e+01  2.16430e+01
       E  9.25428e+00 -5.86102e+00  2.87761e+01
       E -1.20962e+01 -1.34824e+01  1.27725e+01
3
# CELL(abcABC): 1322.94304  1322.94304  1322.94304    90.00000    90.00000    90.00000  Step:        6100  Bead:      16 positions{angstrom}  cell{angstrom}
       E -1.25757e+01 -3.64786e+01 -3.80582e+01
       E  3.54765e+01  1.74923e+01  3.85961e+01
       E  1.76747e+01 -5.34230e+00 -2.73104e+01
3
# CELL(abcABC): 1322.94304  1322.94304  1322.94304    90.00000    90.00000    90.00000  Step:        6200  Bead:      16 positions{angstrom}  cell{angstrom}
       E -1.02650e+01 -2.15232e+01 -7.43733e+01
       E  6.60185e+01  3.18989e+01  1.59925e+01
       E  2.45197e+01  3.30502e+00  1.93131e+01
3
# CELL(abcABC): 1322.94304  1322.94304  1322.94304    90.00000    90.00000    90.00000  Step:        6300  Bead:      16 positions{angstrom}  cell{angstrom}
       E -9.79470e+00 -5.26859e+01 -9.92583e+01
       E  7.35878e+01  2.71876e+01 -2.07611e+01
       E  8.47251e+00 -1.62768e+01  1.70647e+01
3
# CELL(abcABC): 1322.94304  1322.94304  1322.94304    90.00000    90.00000    90.00000  Step:        6400  Bead:      16 positions{angstrom}  cell{angstrom}
       E  6.60124e+00 -5.81428e+01 -8.59019e+01
       E  3.42239e+01  1.08157e+01 -2.18213e+01
       E  8.33736e+00 -3.05838e-01 -3.08056e+00
3
# CELL(abcABC): 1322.94304  1322.94304  1322.94304    90.00000    90.00000    90.00000  Step:        6500  Bead:      16 positions{angstrom}  cell{angstrom}
       E  1.60277e+01 -7.34834e+01 -8.82107e+01
       E -1.30862e+01  4.25293e+00 -9.66672e+00
       E  4.01782e+01 -3.72234e+01 -1.76235e+01
3
# CELL(abcABC): 1322.94304  1322.94304  1322.94304    90.00000    90.00000    90.00000  Step:        6600  Bead:      16 positions{angstrom}  cell{angstrom}
       E  1.09004e+00 -7.62877e+01 -7.38290e+01
       E  2.91965e+01 -3.21517e+01 -6.78627e+00
       E  4.17030e+01 -2.63862e+01 -3.69326e+00
3
# CELL(abcABC): 1322.94304  1322.94304  1322.94304    90.00000    90.00000    90.00000  Step:        6700  Bead:      16 positions{angstrom}  cell{angstrom}
       E  1.13937e+01 -9.71457e+01 -7.44105e+01
       E  6.82148e+00  1.07840e+01 -1.10189e+01
       E -1.29912e+01 -1.31042e+01  1.60672e+01
3
# CELL(abcABC): 1322.94304  1322.94304  1322.94304    90.00000    90.00000    90.00000  Step:        6800  Bead:      16 positions{angstrom}  cell{angstrom}
       E -1.99065e+01 -1.10701e+02 -6.65523e+01
       E  2.17535e+01 -9.36635e+00 -1.98947e+01
       E  2.86364e+01 -5.50874e+00  1.36648e+01
3
# CELL(abcABC): 1322.94304  1322.94304  1322.94304    90.00000    90.00000    90.00000  Step:        6900  Bead:      16 positions{angstrom}  cell{angstrom}
       E  6.56180e+00 -9.27333e+01 -5.51272e+01
       E  1.73488e+01 -3.82391e+01 -2.55040e+01
       E -1.34802e+01  1.66846e+01  3.16533e+01
3
# CELL(abcABC): 1322.94304  1322.94304  1322.94304    90.00000    90.00000    90.00000  Step:        7000  Bead:      16 positions{angstrom}  cell{angstrom}
       E  5.32139e+01 -9.48173e+01 -9.22903e+00
       E -1.35470e+01 -3.73451e+01  2.61493e+01
       E -1.02605e+01  4.94083e+01 -2.74172e+01
3
# CELL(abcABC): 1322.94304  1322.94304  1322.94304    90.00000    90.00000    90.00000  Step:        7100  Bead:      16 positions{angstrom}  cell{angstrom}
       E  4.76317e+01 -1.79715e+01  5.52203e+00
       E -1.58370e+01 -3.17292e+00  3.56355e+01
       E  4.42819e+01  1.99355e+01 -4.05406e+01
3
# CELL(abcABC): 1322.94304  1322.94304  1322.94304    90.00000    90.00000    90.00000  Step:        7200  Bead:      16 positions{angstrom}  cell{angstrom}
       E  5.02089e+01 -2.96331e+01 -1.88795e+01
       E -2.59712e+01  3.30403e+01  1.97784e+01
       E  4.21191e+01  4.86788e+01 -1.80408e+01
3
# CELL(abcABC): 1322.94304  1322.94304  1322.94304    90.00000    90.00000    90.00000  Step:        7300  Bead:      16 positions{angstrom}  cell{angstrom}
       E  1.64125e+01 -4.39244e+01 -5.90465e+01
       E -3.00457e+01  2.91561e+01  4.36992e+01
       E  3.72381e+01  4.40973e+01 -3.06126e+01
3
# CELL(abcABC): 1322.94304  1322.94304  1322.94304    90.00000    90.00000    90.00000  Step:        7400  Bead:      16 positions{angstrom}  cell{angstrom}
       E  3.78176e+01 -4.00625e+01 -5.99376e+01
       E -4.00351e+01  2.92692e+01  1.04990e+01
       E  3.81530e+01  2.52790e+01  1.72028e+01
3
# CELL(abcABC): 1322.94304  1322.94304  1322.94304    90.00000    90.00000    90.00000  Step:        7500  Bead:      16 positions{angstrom}  cell{angstrom}
       E  2.82888e+01 -8.98870e+01 -5.53899e+01
       E -5.51589e+01 -1.66232e+01  1.75047e+01
       E  4.45196e+01  2.44458e+01 -5.02121e+00
3
# CELL(abcABC): 1322.94304  1322.94304  1322.94304    90.00000    90.00000    90.00000  Step:        7600  Bead:      16 positions{angstrom}  cell{angstrom}
       E  2.88182e+01 -5.89616e+01 -2.74658e+01
       E -2.03751e+01 -2.79549e+01 -8.36303e+00
       E  1.80493e+01  1.84766e+01 -2.76733e+01
3
# CELL(abcABC): 1322.94304  1322.94304  1322.94304    90.00000    90.00000    90.00000  Step:        7700  Bead:      16 positions{angstrom}  cell{angstrom}
       E  2.17574e+01 -7.54533e+01 -2.99077e+01
       E -2.13146e+01 -5.76089e+01 -3.97794e+01
       E  7.09777e+01  4.55008e+01 -3.25323e+01
3
# CELL(abcABC): 1322.94304  1322.94304  1322.94304    90.00000    90.00000    90.00000  Step:        7800  Bead:      16 positions{angstrom}  cell{angstrom}
       E  2.63211e+01 -6.31692e+01 -3.36554e+01
       E -2.30277e+01 -3.50540e+01 -1.75578e+01
       E  4.38411e+01  2.98628e+01 -2.73730e+01
3
# CELL(abcABC): 1322.94304  1322.94304  1322.94304    90.00000    90.00000    90.00000  Step:        7900  Bead:      16 positions{angstrom}  cell{angstrom}
       E  2.29241e+01 -4.54185e+01 -1.95750e+01
       E  4.27946e+00  1.02873e+00 -1.69545e+01
       E  6.11897e+00 -1.27190e+01 -4.43232e+01
3
# CELL(abcABC): 1322.94304  1322.94304  1322.94304    90.00000    90.00000    90.00000  Step:        8000  Bead:      16 positions{angstrom}  cell{angstrom}
       E  4.47101e+00 -1.06575e+01 -3.01801e+01
       E -1.78847e+01  8.98866e+00 -1.21101e+01
       E  7.79777e+00 -1.27587e+01 -3.72069e+01
3
# CELL(abcABC): 1322.94304  1322.94304  1322.94304    90.00000    90.00000    90.00000  Step:        8100  Bead:      16 positions{angstrom}  cell{angstrom}
       E -1.21710e+01  1.61331e+01 -4.91975e+01
       E -4.27164e+01  1.90378e+01 -2.75024e+01
       E  3.04880e+01  6.17470e+00 -1.18593e+01
3
# CELL(abcABC): 1322.94304  1322.94304  1322.94304    90.00000    90.00000    90.00000  Step:        8200  Bead:      16 positions{angstrom}  cell{angstrom}
       E  2.18874e+01  4.04243e+01 -4.80702e+01
       E -3.16715e+01 -2.64253e+01 -1.58131e+01
       E -1.29239e+01 -4.28342e+01  2.48123e+01
3
# CELL(abcABC): 1322.94304  1322.94304  1322.94304    90.00000    90.00000    90.00000  Step:        8300  Bead:      16 positions{angstrom}  cell{angstrom}
       E  1.61182e+01  4.11579e+01 -3.54680e+01
       E -1.83990e+01  1.98027e+01 -2.27439e+01
       E  1.80875e+01 -5.17056e+01  5.83972e+01
3
# CELL(abcABC): 1322.94304  1322.94304  1322.94304    90.00000    90.00000    90.00000  Step:        8400  Bead:      16 positions{angstrom}  cell{angstrom}
       E -1.45666e+01  2.98843e+01 -3.15653e+01
       E  2.09111e-01  3.17729e+01 -4.30937e+00
       E  6.08888e+00 -5.01983e+01  6.12981e+01
3
# CELL(abcABC): 1322.94304  1322.94304  1322.94304    90.00000    90.00000    90.00000  Step:        8500  Bead:      16 positions{angstrom}  cell{angstrom}
       E -7.87547e+00 -2.36277e+01  1.55450e+01
       E  3.73449e+01  9.54918e-01 -4.30403e+01
       E  1.77348e+01 -3.31560e+01  6.37119e+01
3
# CELL(abcABC): 1322.94304  1322.94304  1322.94304    90.00000    90.00000    90.00000  Step:        8600  Bead:      16 positions{angstrom}  cell{angstrom}
       E  3.61580e+00 -1.27007e+01 -9.89043e+00
       E  3.48711e+01  7.46581e+00 -3.46671e+01
       E  5.57283e+00 -1.54920e+01  1.58982e+01
3
# CELL(abcABC): 1322.94304  1322.94304  1322.94304    90.00000    90.00000    90.00000  Step:        8700  Bead:      16 positions{angstrom}  cell{angstrom}
       E  3.07689e-01 -1.19178e+01  1.85488e+00
       E  4.31289e+01  1.11867e+01 -5.00226e+01
       E  1.95130e+01 -2.43943e+01  3.65363e+01
3
# CELL(abcABC): 1322.94304  1322.94304  1322.94304    90.00000    90.00000    90.00000  Step:        8800  Bead:      16 positions{angstrom}  cell{angstrom}
       E -2.25109e+01  3.15892e+01  7.45738e+00
       E  1.98071e+01 -6.80490e+00 -1.78375e+01
       E  4.25950e+01 -3.94613e+01  4.41973e+01
3
# CELL(abcABC): 1322.94304  1322.94304  1322.94304    90.00000    90.00000    90.00000  Step:        8900  Bead:      16 positions{angstrom}  cell{angstrom}
       E -3.26927e+01  4.12049e+01  5.55170e+01
       E -3.54539e-01 -8.13579e+00  1.22578e+01
       E  2.39142e+01 -3.68222e+01  2.22548e+01
3
# CELL(abcABC): 1322.94304  1322.94304  1322.94304    90.00000    90.00000    90.00000  Step:        9000  Bead:      16 positions{angstrom}  cell{angstrom}
       E -2.63316e+01  3.73614e+01  4.24211e+01
       E -7.35336e+00  4.22943e+00  4.66345e+01
       E  4.96466e+01 -4.66078e+01  3.23528e+01
3
# CELL(abcABC): 1322.94304  1322.94304  1322.94304    90.00000    90.00000    90.00000  Step:        9100  Bead:      16 positions{angstrom}  cell{angstrom}
       E  9.23661e+00  5.71101e+00  3.56746e+01
       E  7.87428e+00 -2.22862e+01  7.63849e+01
       E  2.36260e+01 -6.64575e+00  1.58728e+01
3
# CELL(abcABC): 1322.94304  1322.94304  1322.94304    90.00000    90.00000    90.00000  Step:        9200  Bead:      16 positions{angstrom}  cell{angstrom}
       E  4.73645e+01  1.18975e+01  2.29285e+01
       E -3.11858e+01  2.13492e+01  5.14757e+01
       E  4.11329e+01 -6.07109e+01  5.82309e+00
3
# CELL(abcABC): 1322.94304  1322.94304  1322.94304    90.00000    90.00000    90.00000  Step:        9300  Bead:      16 positions{angstrom}  cell{angstrom}
       E  1.47011e+01  1.49626e+01  8.57764e+00
       E -5.33009e+01  1.39198e+00  2.25005e+01
       E  7.21955e+00 -5.71532e+01 -1.79894e+01
3
# CELL(abcABC): 1322.94304  1322.94304  1322.94304    90.00000    90.00000    90.00000  Step:        9400  Bead:      16 positions{angstrom}  cell{angstrom}
       E -8.20556e-01  6.39771e+01 -2.30442e+01
       E -4.58822e+01 -4.16828e+01  1.05356e+01
       E  1.72452e+01 -2.86219e+01 -3.73198e+00
3
# CELL(abcABC): 1322.94304  1322.94304  1322.94304    90.00000    90.00000    90.00000  Step:        9500  Bead:      16 positions{angstrom}  cell{angstrom}
       E  3.07047e+01  5.60982e+01 -7.17466e+01
       E -1.19143e+01 -3.92217e+01 -4.42564e+00
       E  3.03996e+01 -1.89044e+01  4.09850e+01
3
# CELL(abcABC): 1322.94304  1322.94304  1322.94304    90.00000    90.00000    90.00000  Step:        9600  Bead:      16 positions{angstrom}  cell{angstrom}
       E  1.56308e+01  6.80131e+00 -5.31883e+01
       E  1.69991e+01 -4.39390e+01  2.05408e+01
       E  4.56616e+00 -3.07139e+01 -4.79245e-01
3
# CELL(abcABC): 1322.94304  1322.94304  1322.94304    90.00000    90.00000    90.00000  Step:        9700  Bead:      16 positions{angstrom}  cell{angstrom}
       E  8.13557e+00 -5.28801e+01 -1.35552e+01
       E  3.56325e+01 -7.45911e+01  3.64336e+01
       E  1.47601e+01  1.10521e+01  1.09810e+01
3
# CELL(abcABC): 1322.94304  1322.94304  1322.94304    90.00000    90.00000    90.00000  Step:        9800  Bead:      16 positions{angstrom}  cell{angstrom}
       E -4.16963e+01 -5.33374e+01 -2.03397e+01
       E  2.86004e+01 -9.01729e+01  2.35006e+00
       E -7.66912e+00 -3.45540e+01  2.36758e+01
3