3
# CELL(abcABC): 1322.94304  1322.94304  1322.94304    90.00000    90.00000    90.00000  Step:           0  Bead:       6 positions{angstrom}  cell{angstrom}
       E  0.00000e+00  0.00000e+00  0.00000e+00
       E  0.00000e+00  0.00000e+00  0.00000e+00
       E  0.00000e+00  0.00000e+00  0.00000e+00
3
# CELL(abcABC): 1322.94304  1322.94304  1322.94304    90.00000    90.00000    90.00000  Step:         100  Bead:       6 positions{angstrom}  cell{angstrom}
       E -2.03257e+01 -2.11072e+01  7.31732e+00
       E -1.44442e+01  5.20469e+00 -1.57390e+01
       E -1.51684e+01 -7.53474e+00  2.95235e+00
3
# CELL(abcABC): 1322.94304  1322.94304  1322.94304    90.00000    90.00000    90.00000  Step:         200  Bead:       6 positions{angstrom}  cell{angstrom}
       E -1.58128e+01 -2.78858e+01 -1.48890e+01
       E  2.82144e+01  1.19211e+01 -2.85240e+01
       E -3.74314e+01  2.58911e+00  2.65139e+01
3
# CELL(abcABC): 1322.94304  1322.94304  1322.94304    90.00000    90.00000    90.00000  Step:         300  Bead:       6 positions{angstrom}  cell{angstrom}
       E -1.84151e+01 -3.07859e+01 -3.71059e+01
       E -5.31126e+00  2.05818e+00 -3.85999e+01
       E -2.67367e+01  3.17174e+01  3.24358e+01
3
# CELL(abcABC): 1322.94304  1322.94304  1322.94304    90.00000    90.00000    90.00000  Step:         400  Bead:       6 positions{angstrom}  cell{angstrom}
       E  2.54288e+00  9.63110e+00  6.46333e+00
       E  1.04775e+01  8.02448e+00 -1.58605e+01
       E  4.99787e+00  4.89734e+01  3.70762e+01
3
# CELL(abcABC): 1322.94304  1322.94304  1322.94304    90.00000    90.00000    90.00000  Step:         500  Bead:       6 positions{angstrom}  cell{angstrom}
       E -1.02321e+01  1.30552e+01 -2.94159e+01
       E -1.75676e+01 -5.61259e+00  1.10982e+01
       E -2.00885e+01  3.50294e+01  9.57314e+00
3
# CELL(abcABC): 1322.94304  1322.94304  1322.94304    90.00000    90.00000    90.00000  Step:         600  Bead:       6 positions{angstrom}  cell{angstrom}
       E -4.11711e+01  1.86205e+01 -4.51079e+01
       E  2.68947e-01 -2.42287e+01  4.05311e+01
       E -6.54477e+00 -1.40405e+01  1.30435e+01
3
# CELL(abcABC): 1322.94304  1322.94304  1322.94304    90.00000    90.00000    90.00000  Step:         700  Bead:       6 positions{angstrom}  cell{angstrom}
       E  1.26687e+01  1.31036e+01 -3.56355e+01
       E -1.38329e+01  1.50190e+01  2.27675e+01
       E  1.48606e-01  1.57097e+01  2.99718e+01
3
# CELL(abcABC): 1322.94304  1322.94304  1322.94304    90.00000    90.00000    90.00000  Step:         800  Bead:       6 positions{angstrom}  cell{angstrom}
       E -3.06716e+01  2.15763e+01 -3.46707e+01
       E  1.01114e+01  3.86322e+01 -9.08058e+00
       E -7.82136e+01  2.85565e+01  4.83682e+01
3
# CELL(abcABC): 1322.94304  1322.94304  1322.94304    90.00000    90.00000    90.00000  Step:         900  Bead:       6 positions{angstrom}  cell{angstrom}
       E  1.00613e+01 -3.75727e+01  6.06334e+00
       E  3.38578e+01 -4.28036e+00 -1.72963e+01
       E -3.91300e+01  3.90153e+01  7.33809e+01
3
# CELL(abcABC): 1322.94304  1322.94304  1322.94304    90.00000    90.00000    90.00000  Step:        1000  Bead:       6 positions{angstrom}  cell{angstrom}
       E  1.05279e+00  1.83597e+01 -3.16632e+01
       E  2.97956e+01 -1.12570e+00 -1.43434e+01
       E -2.90962e+01 -5.42639e+00  7.66774e+01
3
# CELL(abcABC): 1322.94304  1322.94304  1322.94304    90.00000    90.00000    90.00000  Step:        1100  Bead:       6 positions{angstrom}  cell{angstrom}
       E  1.14167e+01  4.33838e-01 -5.02755e+01
       E  5.17994e+01 -1.54277e+01 -5.57182e+01
       E -4.30321e+01 -1.25054e+01  3.84661e+01
3
# CELL(abcABC): 1322.94304  1322.94304  1322.94304    90.00000    90.00000    90.00000  Step:        1200  Bead:       6 positions{angstrom}  cell{angstrom}
       E  2.56934e+01  2.42107e+01 -5.35722e+01
       E  2.76494e+01 -2.61734e+01 -9.21363e+01
       E -4.67904e+01  1.03578e+01  4.15190e+01
3
# CELL(abcABC): 1322.94304  1322.94304  1322.94304    90.00000    90.00000    90.00000  Step:        1300  Bead:       6 positions{angstrom}  cell{angstrom}
       E -4.01535e+00 -7.16078e+00 -5.18499e+01
       E -2.10508e+01 -9.08929e+01 -5.88644e+01
       E -3.55138e+01  3.84636e+01  1.85295e+01
3
# CELL(abcABC): 1322.94304  1322.94304  1322.94304    90.00000    90.00000    90.00000  Step:        1400  Bead:       6 positions{angstrom}  cell{angstrom}
       E -3.40256e+01  1.35300e+01 -5.15014e+01
       E -8.21739e+00 -2.52119e+01 -2.93234e+01
       E -3.88358e+01  2.22409e+01  2.24595e+01
3
# CELL(abcABC): 1322.94304  1322.94304  1322.94304    90.00000    90.00000    90.00000  Step:        1500  Bead:       6 positions{angstrom}  cell{angstrom}
       E -4.37379e+01  3.88288e+01 -7.34424e+01
       E  1.28757e+01 -9.45360e+00 -2.11745e+01
       E -5.18774e+01  3.57633e+01  2.04439e+01
3
# CELL(abcABC): 1322.94304  1322.94304  1322.94304    90.00000    90.00000    90.00000  Step:        1600  Bead:       6 positions{angstrom}  cell{angstrom}
       E -2.55176e+01  5.01415e+01 -3.31277e+01
       E -7.61575e+00 -1.91107e+00  6.94909e+00
       E -4.59462e+01  5.62931e+01  1.60688e+01
3
# CELL(abcABC): 1322.94304  1322.94304  1322.94304    90.00000    90.00000    90.00000  Step:        1700  Bead:       6 positions{angstrom}  cell{angstrom}
       E -1.47188e+01  4.77875e+01 -1.96566e+01
       E -8.84780e+00  1.37821e+01  5.21274e+00
       E -2.21962e+01  7.22957e+01  1.72866e+01
3
# CELL(abcABC): 1322.94304  1322.94304  1322.94304    90.00000    90.00000    90.00000  Step:        1800  Bead:       6 positions{angstrom}  cell{angstrom}
       E -1.66010e+01  3.68357e+01  7.76463e+00
       E -1.72995e+01  3.29481e+01 -3.63177e+00
       E -4.56791e+01  5.69139e+01  6.52152e+01
3
# CELL(abcABC): 1322.94304  1322.94304  1322.94304    90.00000    90.00000    90.00000  Step:        1900  Bead:       6 positions{angstrom}  cell{angstrom}
       E -9.63530e+00  3.20019e+01  8.52704e+00
       E -8.07728e+01  2.26903e+01  2.28006e+01
       E -6.27831e+01  5.79048e+01  4.05388e+01
3
# CELL(abcABC): 1322.94304  1322.94304  1322.94304    90.00000    90.00000    90.00000  Step:        2000  Bead:       6 positions{angstrom}  cell{angstrom}
       E  9.61498e-01 -1.14256e+01  1.55389e+01
       E -6.75523e+01  2.94287e+01  2.77854e+01
       E -7.55321e+01  4.56215e+01  2.46578e+01
3
# CELL(abcABC): 1322.94304  1322.94304  1322.94304    90.00000    90.00000    90.00000  Step:        2100  Bead:       6 positions{angstrom}  cell{angstrom}
       E -2.29742e+01 -3.49473e+00  2.88299e+01
       E -3.37407e+01  1.32406e+01  1.24510e+01
       E -5.79037e+01  1.44767e+01  1.67079e+01
3
# CELL(abcABC): 1322.94304  1322.94304  1322.94304    90.00000    90.00000    90.00000  Step:        2200  Bead:       6 positions{angstrom}  cell{angstrom}
       E -3.44874e+01 -5.56709e-01  2.80044e+01
       E -3.59600e+01 -3.04117e+01 -3.94440e+01
       E -2.55210e+01  4.26277e+01  4.60302e+01
3
# CELL(abcABC): 1322.94304  1322.94304  1322.94304    90.00000    90.00000    90.00000  Step:        2300  Bead:       6 positions{angstrom}  cell{angstrom}
       E -2.00496e+01 -2.18675e+01  3.57234e+01
       E -2.47416e+01 -4.62951e+01 -3.76360e+01
       E -2.40641e+01  3.07112e+01  3.74986e+01
3
# CELL(abcABC): 1322.94304  1322.94304  1322.94304    90.00000    90.00000    90.00000  Step:        2400  Bead:       6 positions{angstrom}  cell{angstrom}
       E -2.14089e+01 -7.39846e+00  3.82764e+01
       E  3.05465e+01 -5.29145e+01 -2.43064e+01
       E -8.24097e+00  1.85583e+01  3.89199e+01
3
# CELL(abcABC): 1322.94304  1322.94304  1322.94304    90.00000    90.00000    90.00000  Step:        2500  Bead:       6 positions{angstrom}  cell{angstrom}
       E  2.47590e+00  5.38032e+00  4.36381e+01
       E -2.22377e+01 -2.03540e+01 -4.22355e+01
       E -2.81508e+01 -1.75677e+01  8.67349e+01
3
# CELL(abcABC): 1322.94304  1322.94304  1322.94304    90.00000    90.00000    90.00000  Step:        2600  Bead:       6 positions{angstrom}  cell{angstrom}
       E  2.97558e+01 -4.25875e+01  6.77163e+01
       E -4.14083e+01 -4.72693e+01 -6.76553e+01
       E -1.25052e+01 -1.82267e+01  7.58526e+01
3
# CELL(abcABC): 1322.94304  1322.94304  1322.94304    90.00000    90.00000    90.00000  Step:        2700  Bead:       6 positions{angstrom}  cell{angstrom}
       E  3.66389e+01 -3.29187e+01  7.05580e+01
       E -8.03528e+01 -5.24019e+01 -3.53760e+01
       E -1.43169e+01 -2.28150e+01  5.91179e+01
3
# CELL(abcABC): 1322.94304  1322.94304  1322.94304    90.00000    90.00000    90.00000  Step:        2800  Bead:       6 positions{angstrom}  cell{angstrom}
       E -1.38885e+01 -2.13403e+01 -6.28109e+00
       E -2.82643e+01 -4.50515e+01 -4.20199e+01
       E -1.37329e-01 -2.05739e+01  6.69317e+01
3
# CELL(abcABC): 1322.94304  1322.94304  1322.94304    90.00000    90.00000    90.00000  Step:        2900  Bead:       6 positions{angstrom}  cell{angstrom}
       E -2.04232e+01 -4.10980e+01 -3.26278e+01
       E -2.79010e+01 -3.93740e+01 -2.62149e+01
       E  1.11497e+01 -2.54692e+01  5.78889e+01
3
# CELL(abcABC): 1322.94304  1322.94304  1322.94304    90.00000    90.00000    90.00000  Step:        3000  Bead:       6 positions{angstrom}  cell{angstrom}
       E -1.09571e+00 -2.59746e+01 -4.11656e+01
       E -3.80611e+01 -4.88249e+01 -6.44391e+00
       E  6.07489e+00 -2.85085e-02  3.16405e+01
3
# CELL(abcABC): 1322.94304  1322.94304  1322.94304    90.00000    90.00000    90.00000  Step:        3100  Bead:       6 positions{angstrom}  cell{angstrom}
       E  1.20921e+01 -3.53934e+01  1.85505e+01
       E -3.15867e+01 -6.47575e+01  2.49903e+01
       E -3.23863e+01  1.57194e+01  2.00795e+01
3
# CELL(abcABC): 1322.94304  1322.94304  1322.94304    90.00000    90.00000    90.00000  Step:        3200  Bead:       6 positions{angstrom}  cell{angstrom}
       E  2.14404e+00  3.82719e+01  3.51961e+01
       E -6.47612e+01 -5.72394e+01  3.58143e+01
       E -2.40398e+01  2.45953e+01  1.14728e+01
3
# CELL(abcABC): 1322.94304  1322.94304  1322.94304    90.00000    90.00000    90.00000  Step:        3300  Bead:       6 positions{angstrom}  cell{angstrom}
       E  1.70431e+01  3.07977e+01  3.91801e+01
       E -8.00305e+01 -2.50530e+01  5.24789e+01
       E -8.21960e+00  1.71117e+01  4.48884e+01
3
# CELL(abcABC): 1322.94304  1322.94304  1322.94304    90.00000    90.00000    90.00000  Step:        3400  Bead:       6 positions{angstrom}  cell{angstrom}
       E -5.46460e+00  2.10916e+01  2.54076e+01
       E -7.60144e+01 -6.08554e+01  5.59692e+01
       E -6.61091e+01  1.65287e+01  6.43843e+01
3
# CELL(abcABC): 1322.94304  1322.94304  1322.94304    90.00000    90.00000    90.00000  Step:        3500  Bead:       6 positions{angstrom}  cell{angstrom}
       E -1.82840e+01  2.59018e+01  2.06023e+01
       E -2.66329e+01 -5.53238e+01  5.43299e+01
       E -5.24109e+01  2.12827e+01  6.27261e+01
3
# CELL(abcABC): 1322.94304  1322.94304  1322.94304    90.00000    90.00000    90.00000  Step:        3600  Bead:       6 positions{angstrom}  cell{angstrom}
       E -1.13553e+01  1.40444e+01  3.03685e+00
       E -8.99929e+00 -4.75657e+01  1.42443e+01
       E -8.60957e+01  9.70821e+00  2.88327e+01
3
# CELL(abcABC): 1322.94304  1322.94304  1322.94304    90.00000    90.00000    90.00000  Step:        3700  Bead:       6 positions{angstrom}  cell{angstrom}
       E -7.44584e+01 -1.18868e+01 -2.76168e+01
       E -2.01328e+01 -1.60132e+01  1.77696e+01
       E -6.77347e+01 -1.65189e+01 -1.71778e+01
3
# CELL(abcABC): 1322.94304  1322.94304  1322.94304    90.00000    90.00000    90.00000  Step:        3800  Bead:       6 positions{angstrom}  cell{angstrom}
       E -7.09568e+01 -1.80274e+01 -4.93848e+01
       E -3.42390e+01 -3.82801e+01 -3.97725e+00
       E -5.41429e+01 -1.89520e+01 -9.36802e-01
3
# CELL(abcABC): 1322.94304  1322.94304  1322.94304    90.00000    90.00000    90.00000  Step:        3900  Bead:       6 positions{angstrom}  cell{angstrom}
       E -4.44868e+01  1.97300e+01 -1.01281e+01
       E -1.30951e+01 -7.96713e+00 -4.29942e+01
       E -4.33821e+01 -5.65127e+01  2.54161e+00
3
# CELL(abcABC): 1322.94304  1322.94304  1322.94304    90.00000    90.00000    90.00000  Step:        4000  Bead:       6 positions{angstrom}  cell{angstrom}
       E -8.21716e+01  1.47458e+01 -1.09055e+01
       E -3.93564e+01 -6.50192e+00  3.43953e+00
       E -6.73807e+01  6.97456e+00 -7.42722e+00
3
# CELL(abcABC): 1322.94304  1322.94304  1322.94304    90.00000    90.00000    90.00000  Step:        4100  Bead:       6 positions{angstrom}  cell{angstrom}
       E -8.26167e+01  6.01047e+01 -6.12037e+01
       E  1.89079e+00  2.41123e+01  3.53486e+01
       E -6.87641e+01  2.20866e+01  3.80309e+01
3
# CELL(abcABC): 1322.94304  1322.94304  1322.94304    90.00000    90.00000    90.00000  Step:        4200  Bead:       6 positions{angstrom}  cell{angstrom}
       E -1.38300e+01  5.84609e+01 -3.98510e+01
       E -2.57138e+01  2.81222e+01  4.37173e+01
       E -8.84130e+01  1.55100e+00  2.04764e+01
3
# CELL(abcABC): 1322.94304  1322.94304  1322.94304    90.00000    90.00000    90.00000  Step:        4300  Bead:       6 positions{angstrom}  cell{angstrom}
       E -3.29265e+01  3.60850e+00 -7.58963e+01
       E -3.10261e+01  3.30571e+01  5.82846e+01
       E -6.65544e+01 -2.64629e+01  8.47397e+00
3
# CELL(abcABC): 1322.94304  1322.94304  1322.94304    90.00000    90.00000    90.00000  Step:        4400  Bead:       6 positions{angstrom}  cell{angstrom}
       E -5.68733e+01  3.00436e+00 -8.81131e+01
       E -7.18976e+01  8.00488e+01  3.46549e+01
       E -5.73470e+01 -1.26052e+01  1.41016e+01
3
# CELL(abcABC): 1322.94304  1322.94304  1322.94304    90.00000    90.00000    90.00000  Step:        4500  Bead:       6 positions{angstrom}  cell{angstrom}
       E -3.70853e+01  1.79127e+01 -6.04072e+01
       E -5.41027e+01  8.11003e+01  8.25782e+00
       E -3.20818e+01 -1.96525e+01  3.76258e+01
3
# CELL(abcABC): 1322.94304  1322.94304  1322.94304    90.00000    90.00000    90.00000  Step:        4600  Bead:       6 positions{angstrom}  cell{angstrom}
       E  1.93238e+01  3.16438e+01 -8.81362e+01
       E -7.48750e+01  3.42809e+01 -3.74481e+00
       E -3.14302e+01  1.65415e+01  3.32956e+01
3
# CELL(abcABC): 1322.94304  1322.94304  1322.94304    90.00000    90.00000    90.00000  Step:        4700  Bead:       6 positions{angstrom}  cell{angstrom}
       E  1.50023e+01  4.62844e+01 -6.64639e+01
       E -6.28409e+01  6.07458e+01 -1.58316e+01
       E -7.05946e+00  3.20736e+01 -1.82298e+01
3
# CELL(abcABC): 1322.94304  1322.94304  1322.94304    90.00000    90.00000    90.00000  Step:        4800  Bead:       6 positions{angstrom}  cell{angstrom}
       E  2.40065e+01  5.33451e+01 -2.20781e+01
       E -5.08604e+01  2.11777e+01 -1.74962e+00
       E  2.60303e+01  3.53495e+01 -4.55874e+01
3
# CELL(abcABC): 1322.94304  1322.94304  1322.94304    90.00000    90.00000    90.00000  Step:        4900  Bead:       6 positions{angstrom}  cell{angstrom}
       E  3.77476e+01  4.64695e+01 -2.36089e+01
       E -9.42257e+01 -1.83615e+01 -1.72659e+01
       E -6.88866e+00  2.62337e+01 -6.48217e+01
3
# CELL(abcABC): 1322.94304  1322.94304  1322.94304    90.00000    90.00000    90.00000  Step:        5000  Bead:       6 positions{angstrom}  cell{angstrom}
       E  4.43779e+01  2.22448e+01  2.36591e+01
       E -6.05135e+01 -5.38666e+01 -2.08848e+01
       E -2.44200e+01  1.61216e+01 -5.94269e+01
3
# CELL(abcABC): 1322.94304  1322.94304  1322.94304    90.00000    90.00000    90.00000  Step:        5100  Bead:       6 positions{angstrom}  cell{angstrom}
       E  2.10575e+01  1.87229e+01  2.85901e+00
       E -4.81943e+01 -3.99599e+01 -2.85169e+00
       E  1.09214e+01  6.59610e+00 -3.69613e+00
3
# CELL(abcABC): 1322.94304  1322.94304  1322.94304    90.00000    90.00000    90.00000  Step:        5200  Bead:       6 positions{angstrom}  cell{angstrom}
       E  2.93157e+01  5.09447e+01  5.17178e+00
       E -5.19064e+01 -8.43798e+00  9.82808e-01
       E  1.34080e+01  1.31666e+01  8.12163e+00
3
# CELL(abcABC): 1322.94304  1322.94304  1322.94304    90.00000    90.00000    90.00000  Step:        5300  Bead:       6 positions{angstrom}  cell{angstrom}
       E  1.42206e+01  4.94760e+01  4.08538e+01
       E -3.51651e+01  1.73787e+01 -2.19005e+01
       E  1.91906e+01  3.87668e+01  2.51788e+00
3
# CELL(abcABC): 1322.94304  1322.94304  1322.94304    90.00000    90.00000    90.00000  Step:        5400  Bead:       6 positions{angstrom}  cell{angstrom}
       E  3.58695e+00  1.81325e+01  3.56679e+01
       E -4.47740e+01  4.00096e-01 -3.21673e+01
       E  1.11700e+01  2.59205e+00  2.08891e+01
3
# CELL(abcABC): 1322.94304  1322.94304  1322.94304    90.00000    90.00000    90.00000  Step:        5500  Bead:       6 positions{angstrom}  cell{angstrom}
       E -1.42706e+01  4.62489e+01  4.92002e+01
       E -5.67293e+01 -2.43928e+00 -2.83364e+01
       E  6.53564e+00  1.20919e+01  3.58415e+01
3
# CELL(abcABC): 1322.94304  1322.94304  1322.94304    90.00000    90.00000    90.00000  Step:        5600  Bead:       6 positions{angstrom}  cell{angstrom}
       E  4.12670e-01  3.49656e+01  8.19872e+00
       E  6.78861e+00  1.83915e+01 -1.61804e+01
       E -5.07604e+00  2.79188e+01  3.87464e+01
3
# CELL(abcABC): 1322.94304  1322.94304  1322.94304    90.00000    90.00000    90.00000  Step:        5700  Bead:       6 positions{angstrom}  cell{angstrom}
       E -3.92689e+01  4.17519e+01 -4.92606e+00
       E  5.46279e+00  3.55152e+01  5.37700e+00
       E -3.66084e+01  3.02140e+01  5.38313e+00
3
# CELL(abcABC): 1322.94304  1322.94304  1322.94304    90.00000    90.00000    90.00000  Step:        5800  Bead:       6 positions{angstrom}  cell{angstrom}
       E -1.73646e+01  2.38379e+01 -2.83016e+00
       E -2.88961e+01  1.51831e+01 -3.06141e+00
       E -4.29891e+00  1.41813e+01  1.52660e+01
3
# CELL(abcABC): 1322.94304  1322.94304  1322.94304    90.00000    90.00000    90.00000  Step:        5900  Bead:       6 positions{angstrom}  cell{angstrom}
       E -2.29396e+01 -6.00679e+00  2.77468e+01
       E -5.72505e+01  1.86932e+01 -2.37777e+01
       E -3.23729e+01 -1.07167e+01 -5.24021e+00
3
# CELL(abcABC): 1322.94304  1322.94304  1322.94304    90.00000    90.00000    90.00000  Step:        6000  Bead:       6 positions{angstrom}  cell{angstrom}
       E  1.88770e+01 -3.16890e+01 -3.63837e+00
       E -3.99053e+01  1.06985e+01 -2.05896e+01
       E  2.81764e+01 -3.05734e+01 -7.01449e+00
3
# CELL(abcABC): 1322.94304  1322.94304  1322.94304    90.00000    90.00000    90.00000  Step:        6100  Bead:       6 positions{angstrom}  cell{angstrom}
       E  2.36853e+01 -2.99876e+01 -4.52049e+01
       E  6.23980e+00  2.69049e+01  2.34053e+01
       E  3.70446e+01  3.40905e-01 -3.93850e+01
3
# CELL(abcABC): 1322.94304  1322.94304  1322.94304    90.00000    90.00000    90.00000  Step:        6200  Bead:       6 positions{angstrom}  cell{angstrom}
       E  2.05854e+01 -4.91085e+01 -9.44543e+01
       E  6.31240e+01 -3.06640e+01 -1.29435e+00
       E  3.83319e+01 -1.55793e+01 -3.17187e+01
3
# CELL(abcABC): 1322.94304  1322.94304  1322.94304    90.00000    90.00000    90.00000  Step:        6300  Bead:       6 positions{angstrom}  cell{angstrom}
       E  3.37898e+01 -4.10765e+01 -9.33758e+01
       E  6.53140e+01 -2.94098e+01 -1.10255e+00
       E  2.89853e+01 -2.38024e+01 -7.41663e+00
3
# CELL(abcABC): 1322.94304  1322.94304  1322.94304    90.00000    90.00000    90.00000  Step:        6400  Bead:       6 positions{angstrom}  cell{angstrom}
       E  1.24095e+01 -4.56211e+01 -9.27276e+01
       E  7.88236e+01 -3.73080e+01 -2.26733e+01
       E  1.78691e+01 -4.66872e+01  2.49225e+01
3
# CELL(abcABC): 1322.94304  1322.94304  1322.94304    90.00000    90.00000    90.00000  Step:        6500  Bead:       6 positions{angstrom}  cell{angstrom}
       E -3.32286e+01 -1.16351e+02 -1.07387e+02
       E  5.93074e+01 -4.43530e+01 -3.93439e+01
       E -8.68539e-01 -3.83009e+01  1.33305e+01
3
# CELL(abcABC): 1322.94304  1322.94304  1322.94304    90.00000    90.00000    90.00000  Step:        6600  Bead:       6 positions{angstrom}  cell{angstrom}
       E -8.34200e+00 -1.04049e+02 -1.53979e+02
       E -5.39592e+00 -2.52742e+01 -2.92916e+01
       E  1.04903e+01 -1.28832e+01  3.02564e+01
3
# CELL(abcABC): 1322.94304  1322.94304  1322.94304    90.00000    90.00000    90.00000  Step:        6700  Bead:       6 positions{angstrom}  cell{angstrom}
       E -1.66114e+01 -8.12714e+01 -1.20402e+02
       E  1.67039e+01 -6.01024e+01 -1.67127e+01
       E -3.94465e+00 -1.15626e+01  1.19335e+01
3
# CELL(abcABC): 1322.94304  1322.94304  1322.94304    90.00000    90.00000    90.00000  Step:        6800  Bead:       6 positions{angstrom}  cell{angstrom}
       E  3.96024e+00 -8.23207e+01 -6.15604e+01
       E  8.05194e+00 -1.79395e+01 -3.02128e+00
       E -2.11141e+01  4.21969e+01  2.52081e+01
3
# CELL(abcABC): 1322.94304  1322.94304  1322.94304    90.00000    90.00000    90.00000  Step:        6900  Bead:       6 positions{angstrom}  cell{angstrom}
       E -2.17318e+01 -4.22211e+01 -6.08775e+01
       E  1.78792e+01 -1.46154e+01 -3.44638e+01
       E -1.30986e+01  3.87345e+01  1.36351e+01
3
# CELL(abcABC): 1322.94304  1322.94304  1322.94304    90.00000    90.00000    90.00000  Step:        7000  Bead:       6 positions{angstrom}  cell{angstrom}
       E -4.82177e+01 -4.63878e+01 -4.18816e+01
       E  2.24480e+00  2.78659e+00 -8.43452e+00
       E  1.36329e+01  1.55850e+01  2.33031e+01
3
# CELL(abcABC): 1322.94304  1322.94304  1322.94304    90.00000    90.00000    90.00000  Step:        7100  Bead:       6 positions{angstrom}  cell{angstrom}
       E  2.23905e-01 -2.72563e+01 -2.10509e+01
       E -6.66455e+00  2.57969e+01  1.26514e+01
       E  6.56782e+00  1.26937e+01  5.60849e+01
3
# CELL(abcABC): 1322.94304  1322.94304  1322.94304    90.00000    90.00000    90.00000  Step:        7200  Bead:       6 positions{angstrom}  cell{angstrom}
       E -5.50395e+00 -3.40502e+01 -3.18224e+01
       E -1.88542e+01  4.61765e+01  5.02334e+01
       E  3.67526e+01  4.52799e+01  1.40588e+01
3
# CELL(abcABC): 1322.94304  1322.94304  1322.94304    90.00000    90.00000    90.00000  Step:        7300  Bead:       6 positions{angstrom}  cell{angstrom}
       E -3.94465e+00 -3.22716e+01 -6.42841e+00
       E  8.37675e-01  4.61117e+01  2.18872e+01
       E  1.04832e+02  3.54303e+01 -3.28942e+00
3
# CELL(abcABC): 1322.94304  1322.94304  1322.94304    90.00000    90.00000    90.00000  Step:        7400  Bead:       6 positions{angstrom}  cell{angstrom}
       E -1.49734e+01 -5.08816e+01 -1.02796e+01
       E -1.49334e+00  4.23683e+01  6.19436e+01
       E  8.59246e+01  5.09731e+01 -2.47724e+01
3
# CELL(abcABC): 1322.94304  1322.94304  1322.94304    90.00000    90.00000    90.00000  Step:        7500  Bead:       6 positions{angstrom}  cell{angstrom}
       E -2.61928e+01 -5.61644e+01 -2.78043e+01
       E -2.16862e+01  2.51139e+01  6.85499e+00
       E  6.71697e+01  7.22751e+01 -3.94610e+01
3
# CELL(abcABC): 1322.94304  1322.94304  1322.94304    90.00000    90.00000    90.00000  Step:        7600  Bead:       6 positions{angstrom}  cell{angstrom}
       E -2.59388e+01 -8.84762e+01 -2.12503e+01
       E -3.03803e+01 -6.56014e+01 -6.22763e+00
       E  9.46169e+01  3.13282e+01 -3.21586e+01
3
# CELL(abcABC): 1322.94304  1322.94304  1322.94304    90.00000    90.00000    90.00000  Step:        7700  Bead:       6 positions{angstrom}  cell{angstrom}
       E  9.15124e+00 -4.19589e+01 -2.74798e+01
       E -1.49022e+01 -4.27663e+01 -3.70826e+01
       E  3.48523e+01  8.95887e+00 -1.35371e+01
3
# CELL(abcABC): 1322.94304  1322.94304  1322.94304    90.00000    90.00000    90.00000  Step:        7800  Bead:       6 positions{angstrom}  cell{angstrom}
       E  2.52295e+01 -9.40312e+00 -4.71910e+01
       E  2.36776e+01 -3.61518e+01 -2.34799e+01
       E  4.44260e+01 -3.03493e+00 -6.38150e+01
3
# CELL(abcABC): 1322.94304  1322.94304  1322.94304    90.00000    90.00000    90.00000  Step:        7900  Bead:       6 positions{angstrom}  cell{angstrom}
       E  3.10303e+01 -2.34239e+01 -6.27366e+01
       E  5.36586e+01 -5.40215e+01 -2.70418e+01
       E  4.02717e+01  2.07110e+01 -5.99532e+01
3
# CELL(abcABC): 1322.94304  1322.94304  1322.94304    90.00000    90.00000    90.00000  Step:        8000  Bead:       6 positions{angstrom}  cell{angstrom}
       E  1.78070e+01  6.29759e+00 -5.46048e+00
       E  3.25345e+01 -2.63682e+01 -4.76645e+01
       E  5.69857e-01  3.97389e+01 -1.78134e+01
3
# CELL(abcABC): 1322.94304  1322.94304  1322.94304    90.00000    90.00000    90.00000  Step:        8100  Bead:       6 positions{angstrom}  cell{angstrom}
       E  9.07709e+00 -1.12599e+01 -5.04115e+00
       E  2.58378e+01 -6.62828e+00 -9.94691e+00
       E -8.42944e+00 -2.33618e+00  1.13057e+01
3
# CELL(abcABC): 1322.94304  1322.94304  1322.94304    90.00000    90.00000    90.00000  Step:        8200  Bead:       6 positions{angstrom}  cell{angstrom}
       E  2.47680e+01  1.77360e+01 -5.18203e+01
       E  2.45215e+01  1.95338e+01  1.22194e+01
       E  3.71491e+01 -3.54927e+01  3.87724e+01
3
# CELL(abcABC): 1322.94304  1322.94304  1322.94304    90.00000    90.00000    90.00000  Step:        8300  Bead:       6 positions{angstrom}  cell{angstrom}
       E  3.27967e+01 -7.58547e+00 -5.48483e+01
       E  1.20414e+01  4.18214e+00  5.39648e+01
       E  1.62792e+01 -2.20551e+01  2.46983e+01
3
# CELL(abcABC): 1322.94304  1322.94304  1322.94304    90.00000    90.00000    90.00000  Step:        8400  Bead:       6 positions{angstrom}  cell{angstrom}
       E  2.54857e+01  2.47595e+01 -4.08436e+01
       E -5.49275e+00 -5.84245e+00  1.52481e+01
       E  4.49123e+01  1.59471e+01  2.11407e+01
3
# CELL(abcABC): 1322.94304  1322.94304  1322.94304    90.00000    90.00000    90.00000  Step:        8500  Bead:       6 positions{angstrom}  cell{angstrom}
       E -3.14834e+01  6.22336e+00 -4.46185e+00
       E  5.36417e+01 -4.51362e+00  2.84116e-02
       E  4.48648e+01 -3.13448e+00  3.04046e+01
3
# CELL(abcABC): 1322.94304  1322.94304  1322.94304    90.00000    90.00000    90.00000  Step:        8600  Bead:       6 positions{angstrom}  cell{angstrom}
       E -5.01337e+01  4.04453e+01 -9.38910e+00
       E  4.18188e+01  4.23327e+01 -2.25399e+01
       E  4.87488e+01 -1.03392e+01  4.21430e+01
3
# CELL(abcABC): 1322.94304  1322.94304  1322.94304    90.00000    90.00000    90.00000  Step:        8700  Bead:       6 positions{angstrom}  cell{angstrom}
       E -4.23832e+00  3.72178e+01 -1.72504e+01
       E  6.87193e+01  6.16443e+00 -1.09407e+01
       E  6.27213e+01 -3.63805e+01  1.52408e+01
3
# CELL(abcABC): 1322.94304  1322.94304  1322.94304    90.00000    90.00000    90.00000  Step:        8800  Bead:       6 positions{angstrom}  cell{angstrom}
       E -1.33005e+01  4.76068e+01  1.07872e+01
       E  1.48961e+01  2.08773e+00  1.37290e+01
       E  3.41180e+01 -7.44832e+01  6.19661e+01
3
# CELL(abcABC): 1322.94304  1322.94304  1322.94304    90.00000    90.00000    90.00000  Step:        8900  Bead:       6 positions{angstrom}  cell{angstrom}
       E  1.75971e+00  2.75275e+01  2.58204e+01
       E -5.49922e+00 -5.94739e+01  3.49833e+01
       E  9.61201e+00 -4.78474e+01  3.57270e+01
3
# CELL(abcABC): 1322.94304  1322.94304  1322.94304    90.00000    90.00000    90.00000  Step:        9000  Bead:       6 positions{angstrom}  cell{angstrom}
       E -1.90256e+01  2.51769e+01  3.24172e+01
       E -3.16991e+01 -3.33153e+01  5.55801e+01
       E  2.37838e+01 -6.65553e+01 -2.24090e+01
3
# CELL(abcABC): 1322.94304  1322.94304  1322.94304    90.00000    90.00000    90.00000  Step:        9100  Bead:       6 positions{angstrom}  cell{angstrom}
       E  4.55532e-01  3.34156e+01  4.58689e+01
       E -4.76685e+01 -4.09218e+01  5.40575e+01
       E -8.63389e+00 -7.46895e+01 -2.07426e+01
3
# CELL(abcABC): 1322.94304  1322.94304  1322.94304    90.00000    90.00000    90.00000  Step:        9200  Bead:       6 positions{angstrom}  cell{angstrom}
       E  1.72509e+01  5.84253e+01  1.20169e+01
       E -1.59274e+01  3.04852e+00  1.41886e+01
       E  1.87834e+01 -2.91397e+01  5.70333e+00
3
# CELL(abcABC): 1322.94304  1322.94304  1322.94304    90.00000    90.00000    90.00000  Step:        9300  Bead:       6 positions{angstrom}  cell{angstrom}
       E  1.27749e+01  4.35392e+01 -3.94532e+01
       E  1.07093e+01 -3.96488e+01  1.41165e+01
       E  1.64090e+01 -2.17662e+01 -1.10356e+01
3
# CELL(abcABC): 1322.94304  1322.94304  1322.94304    90.00000    90.00000    90.00000  Step:        9400  Bead:       6 positions{angstrom}  cell{angstrom}
       E  1.67669e+01  4.26914e+01 -4.95335e+01
       E  8.61180e+00 -3.10060e+01  2.19664e+01
       E  3.23245e+01 -5.96714e+01  3.59944e+00
3
# CELL(abcABC): 1322.94304  1322.94304  1322.94304    90.00000    90.00000    90.00000  Step:        9500  Bead:       6 positions{angstrom}  cell{angstrom}
       E  1.07322e+01  2.13137e+01 -3.26173e+01
       E  2.27061e+01 -2.39478e+01 -4.98190e+00
       E -3.23974e+00 -5.19620e+01 -7.31616e+00
3
# CELL(abcABC): 1322.94304  1322.94304  1322.94304    90.00000    90.00000    90.00000  Step:        9600  Bead:       6 positions{angstrom}  cell{angstrom}
       E -4.47718e+01 -8.74685e-01 -3.65971e+01
       E  4.33031e+01 -5.79482e+01  4.28024e+01
       E -1.16329e+01 -7.60463e-01  3.99277e+00
3
# CELL(abcABC): 1322.94304  1322.94304  1322.94304    90.00000    90.00000    90.00000  Step:        9700  Bead:       6 positions{angstrom}  cell{angstrom}
       E -1.36633e+01 -1.05483e+01 -6.66408e+01
       E  3.74743e+01 -7.30970e+01  4.10365e+01
       E  1.81221e+01 -3.91252e+01  2.30521e+01
3
# CELL(abcABC): 1322.94304  1322.94304  1322.94304    90.00000    90.00000    90.00000  Step:        9800  Bead:       6 positions{angstrom}  cell{angstrom}
       E -1.98150e+01 -6.40716e+01 -6.18698e+01
       E  2.12052e+01 -8.99134e+01  4.40055e+00
       E -1.21811e+01 -2.97179e+01  3.74185e+01
3