3
# CELL(abcABC): 1322.94304  1322.94304  1322.94304    90.00000    90.00000    90.00000  Step:           0  Bead:      22 positions{angstrom}  cell{angstrom}
       E  0.00000e+00  0.00000e+00  0.00000e+00
       E  0.00000e+00  0.00000e+00  0.00000e+00
       E  0.00000e+00  0.00000e+00  0.00000e+00
3
# CELL(abcABC): 1322.94304  1322.94304  1322.94304    90.00000    90.00000    90.00000  Step:         100  Bead:      22 positions{angstrom}  cell{angstrom}
       E  3.83228e+01  1.16202e+01 -1.88538e+01
       E -1.54014e+01 -4.20196e+01 -1.97672e+01
       E -1.98738e+01  2.55155e+01  6.64972e+00
3
# CELL(abcABC): 1322.94304  1322.94304  1322.94304    90.00000    90.00000    90.00000  Step:         200  Bead:      22 positions{angstrom}  cell{angstrom}
       E  1.85365e+01  7.86481e+00  7.61643e+00
       E  1.88073e+01 -6.99365e+01 -1.12192e+01
       E  2.14689e+00  2.95288e+01 -5.89767e+00
3
# CELL(abcABC): 1322.94304  1322.94304  1322.94304    90.00000    90.00000    90.00000  Step:         300  Bead:      22 positions{angstrom}  cell{angstrom}
       E  2.08020e+01  1.54169e+01  3.03479e+01
       E  9.00789e+00 -1.66839e+01  2.14167e+01
       E -1.04886e+01 -1.82164e+01 -1.42291e+01
3
# CELL(abcABC): 1322.94304  1322.94304  1322.94304    90.00000    90.00000    90.00000  Step:         400  Bead:      22 positions{angstrom}  cell{angstrom}
       E -7.03503e+00  2.31112e+01  1.98425e+00
       E  3.49651e+01 -2.52893e+01 -1.92542e+01
       E -4.43501e+00  2.95655e+00 -3.48334e+00
3
# CELL(abcABC): 1322.94304  1322.94304  1322.94304    90.00000    90.00000    90.00000  Step:         500  Bead:      22 positions{angstrom}  cell{angstrom}
       E -2.06172e+01  9.69934e+00 -2.28015e+01
       E  3.13367e+01 -9.84852e+00  9.24617e+00
       E -1.35976e+01 -1.52620e+01 -7.59799e+00
3
# CELL(abcABC): 1322.94304  1322.94304  1322.94304    90.00000    90.00000    90.00000  Step:         600  Bead:      22 positions{angstrom}  cell{angstrom}
       E  2.56079e+01 -5.14041e+00 -2.41878e+01
       E  3.80157e+01  8.92956e-01 -1.79075e+01
       E  2.45336e+00  9.06986e-01  7.00465e-01
3
# CELL(abcABC): 1322.94304  1322.94304  1322.94304    90.00000    90.00000    90.00000  Step:         700  Bead:      22 positions{angstrom}  cell{angstrom}
       E  2.04845e+01 -6.23959e+00  1.94408e+00
       E  4.60044e+01 -1.10198e+01  8.70739e+00
       E -1.48169e+01 -1.15507e+01  2.95257e+01
3
# CELL(abcABC): 1322.94304  1322.94304  1322.94304    90.00000    90.00000    90.00000  Step:         800  Bead:      22 positions{angstrom}  cell{angstrom}
       E  1.56428e+01  8.19883e+00  2.42467e+01
       E  5.17351e+01  1.09181e+01  8.10193e+00
       E -1.85551e+01 -1.37253e+01  5.30557e+01
3
# CELL(abcABC): 1322.94304  1322.94304  1322.94304    90.00000    90.00000    90.00000  Step:         900  Bead:      22 positions{angstrom}  cell{angstrom}
       E  1.52330e+01  4.73492e+01 -2.63527e+01
       E  7.41844e+00 -2.88540e+01  6.79285e+00
       E -6.19425e+01 -3.89287e+00  7.55100e+01
3
# CELL(abcABC): 1322.94304  1322.94304  1322.94304    90.00000    90.00000    90.00000  Step:        1000  Bead:      22 positions{angstrom}  cell{angstrom}
       E  1.34411e+01  9.39217e+00 -2.22170e+01
       E  9.61012e+00  4.09346e+00 -4.58049e+01
       E -4.72047e+01 -4.44802e+00  6.91989e+01
3
# CELL(abcABC): 1322.94304  1322.94304  1322.94304    90.00000    90.00000    90.00000  Step:        1100  Bead:      22 positions{angstrom}  cell{angstrom}
       E -1.66279e+01  1.28261e+01 -3.99287e+01
       E  1.52374e+00 -1.79483e+01 -2.74911e+01
       E  4.05426e+00  4.19044e+01  5.51057e+01
3
# CELL(abcABC): 1322.94304  1322.94304  1322.94304    90.00000    90.00000    90.00000  Step:        1200  Bead:      22 positions{angstrom}  cell{angstrom}
       E  1.87019e+00  1.43145e+01 -4.11323e+01
       E  2.01941e+01 -1.18590e+01 -2.87906e+01
       E -9.02796e+00  5.32718e+01  4.05936e+00
3
# CELL(abcABC): 1322.94304  1322.94304  1322.94304    90.00000    90.00000    90.00000  Step:        1300  Bead:      22 positions{angstrom}  cell{angstrom}
       E  5.37122e+00  3.64845e+01 -6.19609e+01
       E  2.43922e+01 -2.19778e+01 -7.91439e+01
       E -5.97572e+00  2.78276e+01  7.82443e+00
3
# CELL(abcABC): 1322.94304  1322.94304  1322.94304    90.00000    90.00000    90.00000  Step:        1400  Bead:      22 positions{angstrom}  cell{angstrom}
       E  3.49944e-01  4.81652e+01 -5.37415e+01
       E  1.80111e+01 -1.12271e+00 -4.69398e+01
       E  3.52599e-01 -1.56747e+01  7.77296e+00
3
# CELL(abcABC): 1322.94304  1322.94304  1322.94304    90.00000    90.00000    90.00000  Step:        1500  Bead:      22 positions{angstrom}  cell{angstrom}
       E -4.35488e+00  5.71193e+01 -5.11662e+01
       E -3.23851e+01  3.36030e+01 -2.87142e+01
       E -5.76282e+00 -4.75036e+00  5.36764e+00
3
# CELL(abcABC): 1322.94304  1322.94304  1322.94304    90.00000    90.00000    90.00000  Step:        1600  Bead:      22 positions{angstrom}  cell{angstrom}
       E -1.73909e+01  3.53394e+01 -2.67618e+01
       E -4.72221e+01  6.08376e+00 -2.41077e+01
       E  3.45462e+01  5.03269e+01  9.43046e+00
3
# CELL(abcABC): 1322.94304  1322.94304  1322.94304    90.00000    90.00000    90.00000  Step:        1700  Bead:      22 positions{angstrom}  cell{angstrom}
       E -2.11498e+01  5.18055e+01 -2.35078e+01
       E -2.68426e+01  2.53221e+01  3.32512e+01
       E  1.19038e+01  7.48156e+01 -2.32881e+01
3
# CELL(abcABC): 1322.94304  1322.94304  1322.94304    90.00000    90.00000    90.00000  Step:        1800  Bead:      22 positions{angstrom}  cell{angstrom}
       E -4.29616e+00  2.98700e+01  2.38742e+01
       E -5.47829e+01  3.76992e+01  3.75343e+01
       E -4.92494e+01  5.13313e+01  1.43539e+00
3
# CELL(abcABC): 1322.94304  1322.94304  1322.94304    90.00000    90.00000    90.00000  Step:        1900  Bead:      22 positions{angstrom}  cell{angstrom}
       E  2.31629e+01 -4.31265e+00  3.71244e+01
       E -3.78775e+01  6.05216e+01 -3.12584e+00
       E -8.19190e+01  4.35497e+01  1.11441e+01
3
# CELL(abcABC): 1322.94304  1322.94304  1322.94304    90.00000    90.00000    90.00000  Step:        2000  Bead:      22 positions{angstrom}  cell{angstrom}
       E -4.23264e+01 -3.93875e+01  5.76335e+01
       E -4.64777e+01 -5.65420e+00  1.29682e+01
       E -5.60386e+01  9.70353e+01 -1.88779e+01
3
# CELL(abcABC): 1322.94304  1322.94304  1322.94304    90.00000    90.00000    90.00000  Step:        2100  Bead:      22 positions{angstrom}  cell{angstrom}
       E -6.25994e+01 -2.92250e+01  5.21673e+01
       E -1.86372e+01  2.33086e+00  1.65069e+01
       E -5.73004e+01  8.19135e+01  4.10119e+01
3
# CELL(abcABC): 1322.94304  1322.94304  1322.94304    90.00000    90.00000    90.00000  Step:        2200  Bead:      22 positions{angstrom}  cell{angstrom}
       E -2.34077e+01 -1.54946e+01  9.18880e+00
       E -2.82155e+01 -2.70123e+01  1.05337e+01
       E -3.16304e+01 -4.99532e+00 -1.07846e+01
3
# CELL(abcABC): 1322.94304  1322.94304  1322.94304    90.00000    90.00000    90.00000  Step:        2300  Bead:      22 positions{angstrom}  cell{angstrom}
       E -5.15415e+01 -2.12534e+01  6.39027e+01
       E -5.43146e+01 -1.09669e+00 -2.62395e+01
       E -1.89384e+01 -1.59317e+01 -3.50109e+01
3
# CELL(abcABC): 1322.94304  1322.94304  1322.94304    90.00000    90.00000    90.00000  Step:        2400  Bead:      22 positions{angstrom}  cell{angstrom}
       E -5.26774e+01  3.22211e+01  3.51006e+01
       E -1.07521e+01 -2.77762e+01 -2.53113e+01
       E  1.70384e+01 -3.42484e+01 -1.46792e+00
3
# CELL(abcABC): 1322.94304  1322.94304  1322.94304    90.00000    90.00000    90.00000  Step:        2500  Bead:      22 positions{angstrom}  cell{angstrom}
       E -7.29407e+01  6.52982e+00  2.78776e+01
       E -2.96564e+01 -3.75914e+01 -2.98233e+01
       E  4.82512e+01 -4.28984e+01  1.99121e+01
3
# CELL(abcABC): 1322.94304  1322.94304  1322.94304    90.00000    90.00000    90.00000  Step:        2600  Bead:      22 positions{angstrom}  cell{angstrom}
       E -7.35183e+01  1.25571e+01  4.31614e+01
       E -6.48158e+01 -2.69835e+01 -4.22004e+01
       E  4.46955e+01 -1.58912e+01  9.08641e+01
3
# CELL(abcABC): 1322.94304  1322.94304  1322.94304    90.00000    90.00000    90.00000  Step:        2700  Bead:      22 positions{angstrom}  cell{angstrom}
       E -7.04301e+01 -1.77220e+01  3.40743e+01
       E -5.06920e+01 -4.41011e+01 -4.31329e+01
       E  1.76852e+01 -6.48485e+01  6.84853e+01
3
# CELL(abcABC): 1322.94304  1322.94304  1322.94304    90.00000    90.00000    90.00000  Step:        2800  Bead:      22 positions{angstrom}  cell{angstrom}
       E -4.47782e+01 -1.85147e+01  7.59319e+01
       E -7.23058e+01 -5.31632e+01  1.62105e+00
       E  2.12261e+01 -3.67020e+01  4.78575e+01
3
# CELL(abcABC): 1322.94304  1322.94304  1322.94304    90.00000    90.00000    90.00000  Step:        2900  Bead:      22 positions{angstrom}  cell{angstrom}
       E -7.05801e+01 -2.52257e+01  6.96790e+01
       E -8.24848e+01 -6.35657e+01  2.58921e+01
       E  2.08299e+01 -2.21984e+01  2.98470e+01
3
# CELL(abcABC): 1322.94304  1322.94304  1322.94304    90.00000    90.00000    90.00000  Step:        3000  Bead:      22 positions{angstrom}  cell{angstrom}
       E -4.60517e+01 -5.00409e+01  8.46246e+01
       E -7.55477e+01 -4.75901e+01 -5.86738e+00
       E -5.52108e+00  5.31355e+00  7.52424e+00
3
# CELL(abcABC): 1322.94304  1322.94304  1322.94304    90.00000    90.00000    90.00000  Step:        3100  Bead:      22 positions{angstrom}  cell{angstrom}
       E -4.09527e+01 -1.47386e+01  9.49409e+01
       E -9.03883e+01 -5.10371e+01  3.33857e+01
       E  3.77573e+01  5.11873e+01 -4.83398e-01
3
# CELL(abcABC): 1322.94304  1322.94304  1322.94304    90.00000    90.00000    90.00000  Step:        3200  Bead:      22 positions{angstrom}  cell{angstrom}
       E -6.53363e+01  4.24029e+00  2.63556e+01
       E -7.82430e+01 -2.48168e+01  5.48794e+01
       E -7.30531e+00  5.72909e+01  8.22198e+00
3
# CELL(abcABC): 1322.94304  1322.94304  1322.94304    90.00000    90.00000    90.00000  Step:        3300  Bead:      22 positions{angstrom}  cell{angstrom}
       E -4.42718e+00  1.43071e+01  4.68162e+01
       E -9.67026e+01 -4.32946e+01  6.66545e+01
       E -2.23574e+01  4.82311e+01 -3.87057e+01
3
# CELL(abcABC): 1322.94304  1322.94304  1322.94304    90.00000    90.00000    90.00000  Step:        3400  Bead:      22 positions{angstrom}  cell{angstrom}
       E -4.55427e+01  2.15440e+01  7.72184e+01
       E -6.02753e+01 -3.17868e+01  4.21688e+01
       E -1.55506e+01  2.40051e+01  1.66811e+01
3
# CELL(abcABC): 1322.94304  1322.94304  1322.94304    90.00000    90.00000    90.00000  Step:        3500  Bead:      22 positions{angstrom}  cell{angstrom}
       E -7.04922e+01  1.24068e+01  7.16420e+01
       E -1.04045e+01 -2.88368e+01  4.21952e+01
       E -2.37440e+01  2.34240e+01  1.96908e+01
3
# CELL(abcABC): 1322.94304  1322.94304  1322.94304    90.00000    90.00000    90.00000  Step:        3600  Bead:      22 positions{angstrom}  cell{angstrom}
       E -8.19250e+01  1.16284e+01  4.08050e+01
       E  6.75539e-01 -4.34668e+01  3.95204e+01
       E -4.56980e+01  6.76904e+00  1.11201e+01
3
# CELL(abcABC): 1322.94304  1322.94304  1322.94304    90.00000    90.00000    90.00000  Step:        3700  Bead:      22 positions{angstrom}  cell{angstrom}
       E -7.59443e+01  1.93053e+01  1.03485e+01
       E -5.92900e+00 -3.93746e+01  2.02820e+01
       E -6.47575e+01  1.06332e+01  7.63972e+00
3
# CELL(abcABC): 1322.94304  1322.94304  1322.94304    90.00000    90.00000    90.00000  Step:        3800  Bead:      22 positions{angstrom}  cell{angstrom}
       E -6.56548e+01  3.89535e+00 -4.34243e+00
       E -4.04686e+00 -2.97292e+01  4.01292e+01
       E -6.10918e+01  1.27072e+00 -1.62127e+01
3
# CELL(abcABC): 1322.94304  1322.94304  1322.94304    90.00000    90.00000    90.00000  Step:        3900  Bead:      22 positions{angstrom}  cell{angstrom}
       E -7.00131e+01 -1.21089e+01 -1.43355e+01
       E -1.01309e+01 -1.09053e+01  1.04961e+01
       E -2.56265e+01 -1.22270e+01 -4.07577e+00
3
# CELL(abcABC): 1322.94304  1322.94304  1322.94304    90.00000    90.00000    90.00000  Step:        4000  Bead:      22 positions{angstrom}  cell{angstrom}
       E -7.49272e+01 -8.14759e+00 -3.50909e+01
       E -3.95465e+01  2.19501e-01  2.03967e+01
       E -2.32444e+01  2.33387e+01  3.59808e+01
3
# CELL(abcABC): 1322.94304  1322.94304  1322.94304    90.00000    90.00000    90.00000  Step:        4100  Bead:      22 positions{angstrom}  cell{angstrom}
       E -7.74423e+01  6.33766e+00 -7.95045e+01
       E -3.65837e+01 -1.19126e+00 -3.42325e+01
       E -2.59139e+01  1.04087e+01  2.04153e+01
3
# CELL(abcABC): 1322.94304  1322.94304  1322.94304    90.00000    90.00000    90.00000  Step:        4200  Bead:      22 positions{angstrom}  cell{angstrom}
       E -7.33681e+01 -2.13470e+01 -1.07570e+02
       E -5.73222e+01  6.59716e+00  1.49282e+01
       E -7.98740e+00  3.62949e+01  2.50366e+01
3
# CELL(abcABC): 1322.94304  1322.94304  1322.94304    90.00000    90.00000    90.00000  Step:        4300  Bead:      22 positions{angstrom}  cell{angstrom}
       E -3.03833e+01  1.24179e+01 -4.92063e+01
       E -1.42256e+01  3.01417e+01 -4.78774e+00
       E -1.08583e+01  1.37513e+01  2.99341e+01
3
# CELL(abcABC): 1322.94304  1322.94304  1322.94304    90.00000    90.00000    90.00000  Step:        4400  Bead:      22 positions{angstrom}  cell{angstrom}
       E -4.02358e+01  2.11576e+01 -6.60684e+01
       E -5.70022e+00  5.73982e+01 -3.43213e+01
       E  1.93034e+01 -3.86283e+01  1.05262e+01
3
# CELL(abcABC): 1322.94304  1322.94304  1322.94304    90.00000    90.00000    90.00000  Step:        4500  Bead:      22 positions{angstrom}  cell{angstrom}
       E -3.73548e+01  2.99274e+01 -5.93489e+01
       E -3.43793e+01  6.71622e+01 -2.88139e+01
       E  1.97883e+01 -2.58862e+01  4.00568e+01
3
# CELL(abcABC): 1322.94304  1322.94304  1322.94304    90.00000    90.00000    90.00000  Step:        4600  Bead:      22 positions{angstrom}  cell{angstrom}
       E -4.26834e+01  2.15506e+01 -3.30499e+01
       E -3.77271e+01  8.38657e+01  1.54498e+01
       E -2.27227e+01 -8.85369e+00  1.76519e+01
3
# CELL(abcABC): 1322.94304  1322.94304  1322.94304    90.00000    90.00000    90.00000  Step:        4700  Bead:      22 positions{angstrom}  cell{angstrom}
       E -9.84297e+00  2.29617e+01 -8.99195e+01
       E -6.50017e+01  6.50709e+01  2.71985e+00
       E -2.26946e+01 -4.96512e+01  8.91733e-01
3
# CELL(abcABC): 1322.94304  1322.94304  1322.94304    90.00000    90.00000    90.00000  Step:        4800  Bead:      22 positions{angstrom}  cell{angstrom}
       E -1.25395e+01 -3.22085e+00 -4.42849e+01
       E -4.96102e+01  2.81613e+01 -9.42428e+00
       E  1.15086e+01 -2.71800e+01  3.87967e+01
3
# CELL(abcABC): 1322.94304  1322.94304  1322.94304    90.00000    90.00000    90.00000  Step:        4900  Bead:      22 positions{angstrom}  cell{angstrom}
       E  2.74118e+01  7.69396e+00 -1.80506e+01
       E -4.12508e+01 -1.09059e+01 -3.45327e+01
       E -1.54011e+01 -3.56773e+01 -2.17548e+01
3
# CELL(abcABC): 1322.94304  1322.94304  1322.94304    90.00000    90.00000    90.00000  Step:        5000  Bead:      22 positions{angstrom}  cell{angstrom}
       E  5.55698e+01 -2.86002e-01  1.54354e+01
       E -5.46291e+01 -1.51802e+01 -5.37317e+01
       E -8.74895e+00  9.84705e+00 -2.34057e+01
3
# CELL(abcABC): 1322.94304  1322.94304  1322.94304    90.00000    90.00000    90.00000  Step:        5100  Bead:      22 positions{angstrom}  cell{angstrom}
       E  1.05454e+00  1.09415e+01  3.70985e+01
       E -4.58251e+01 -2.22590e+01 -3.73146e+01
       E  1.51238e+01  1.36515e+01 -4.53844e+01
3
# CELL(abcABC): 1322.94304  1322.94304  1322.94304    90.00000    90.00000    90.00000  Step:        5200  Bead:      22 positions{angstrom}  cell{angstrom}
       E -2.39971e+01 -3.99790e+00  4.22426e+01
       E -3.04180e+01 -6.32219e-02 -4.16365e+01
       E  1.24791e+01  1.37724e+01 -1.89240e+00
3
# CELL(abcABC): 1322.94304  1322.94304  1322.94304    90.00000    90.00000    90.00000  Step:        5300  Bead:      22 positions{angstrom}  cell{angstrom}
       E -3.04418e+00 -2.47018e+01  3.23398e+01
       E -1.98651e+01  3.62950e+01 -3.39495e+01
       E -5.46914e+01  2.72160e+01  2.07554e+00
3
# CELL(abcABC): 1322.94304  1322.94304  1322.94304    90.00000    90.00000    90.00000  Step:        5400  Bead:      22 positions{angstrom}  cell{angstrom}
       E  3.41343e+01  1.14954e+01 -1.46383e+01
       E -1.97794e+01 -3.38064e+01  1.34450e+01
       E -2.95664e+01  3.04012e+01  1.26724e+01
3
# CELL(abcABC): 1322.94304  1322.94304  1322.94304    90.00000    90.00000    90.00000  Step:        5500  Bead:      22 positions{angstrom}  cell{angstrom}
       E  6.59947e+01 -2.39298e+01 -3.21413e+01
       E -3.03216e+01  2.05942e+01 -1.00305e+01
       E -2.30474e+01  8.96976e+00  3.00313e+01
3
# CELL(abcABC): 1322.94304  1322.94304  1322.94304    90.00000    90.00000    90.00000  Step:        5600  Bead:      22 positions{angstrom}  cell{angstrom}
       E  2.00836e-01  1.73754e+01 -2.72796e+01
       E -1.80059e+01  6.95270e+00  1.39561e+01
       E -4.58341e+01  2.23040e+00  2.47285e+01
3
# CELL(abcABC): 1322.94304  1322.94304  1322.94304    90.00000    90.00000    90.00000  Step:        5700  Bead:      22 positions{angstrom}  cell{angstrom}
       E  2.36599e+01 -9.49753e+00 -4.07100e+01
       E -4.78713e+01 -9.74959e+00 -5.55523e+00
       E -3.15975e+01  1.27579e+01 -4.84469e+00
3
# CELL(abcABC): 1322.94304  1322.94304  1322.94304    90.00000    90.00000    90.00000  Step:        5800  Bead:      22 positions{angstrom}  cell{angstrom}
       E  8.89585e+00  6.20096e+00 -3.63336e+01
       E -3.62672e+01  1.32555e+01 -1.04241e+01
       E -1.33823e+01 -6.44592e-01  2.60285e+00
3
# CELL(abcABC): 1322.94304  1322.94304  1322.94304    90.00000    90.00000    90.00000  Step:        5900  Bead:      22 positions{angstrom}  cell{angstrom}
       E  3.30448e+01  1.96815e+01 -1.76426e+01
       E -1.87256e+01  8.65790e+00 -2.01949e-01
       E  1.00881e+01 -5.42206e+01 -2.76791e+01
3
# CELL(abcABC): 1322.94304  1322.94304  1322.94304    90.00000    90.00000    90.00000  Step:        6000  Bead:      22 positions{angstrom}  cell{angstrom}
       E -1.77296e+01 -3.44029e+01 -2.45791e+01
       E  2.35319e+01 -2.87187e+00 -1.90269e+01
       E  2.18797e+01 -2.68410e+01 -4.67961e+00
3
# CELL(abcABC): 1322.94304  1322.94304  1322.94304    90.00000    90.00000    90.00000  Step:        6100  Bead:      22 positions{angstrom}  cell{angstrom}
       E -1.78743e+01 -5.26588e+01 -2.74188e+01
       E  7.80001e+01  4.55611e+01 -3.65643e+01
       E  1.89584e+01 -4.48398e+01 -4.54534e+00
3
# CELL(abcABC): 1322.94304  1322.94304  1322.94304    90.00000    90.00000    90.00000  Step:        6200  Bead:      22 positions{angstrom}  cell{angstrom}
       E  1.40690e+01 -1.44391e+01 -1.04019e+02
       E  1.28985e+02  2.72609e+01  1.03699e+01
       E  2.74220e+01 -3.88419e+01  6.49257e+00
3
# CELL(abcABC): 1322.94304  1322.94304  1322.94304    90.00000    90.00000    90.00000  Step:        6300  Bead:      22 positions{angstrom}  cell{angstrom}
       E  4.77232e+01 -5.48808e+01 -1.37044e+02
       E  7.23352e+01 -3.89564e+00 -3.06116e+01
       E -7.18770e+00 -3.16859e+01  7.95920e+00
3
# CELL(abcABC): 1322.94304  1322.94304  1322.94304    90.00000    90.00000    90.00000  Step:        6400  Bead:      22 positions{angstrom}  cell{angstrom}
       E  7.87348e+01 -5.60931e+01 -1.33190e+02
       E  1.69114e+01 -2.83593e+01 -4.38455e+01
       E  1.33027e+01 -3.50065e+01 -2.78120e+01
3
# CELL(abcABC): 1322.94304  1322.94304  1322.94304    90.00000    90.00000    90.00000  Step:        6500  Bead:      22 positions{angstrom}  cell{angstrom}
       E  5.14935e+01 -8.23562e+01 -1.12426e+02
       E  2.76772e+01  4.01238e+01 -6.25634e+01
       E  3.85452e+01 -1.67806e+00  2.20926e+01
3
# CELL(abcABC): 1322.94304  1322.94304  1322.94304    90.00000    90.00000    90.00000  Step:        6600  Bead:      22 positions{angstrom}  cell{angstrom}
       E  9.83929e+00 -1.09439e+02 -7.85127e+01
       E  9.31371e+00 -4.76975e+00 -5.12831e+01
       E  3.77347e+01  1.22861e+01  1.90023e+01
3
# CELL(abcABC): 1322.94304  1322.94304  1322.94304    90.00000    90.00000    90.00000  Step:        6700  Bead:      22 positions{angstrom}  cell{angstrom}
       E -1.26821e+01 -1.05750e+02 -8.26111e+01
       E  4.52762e+01 -9.91383e+00 -1.63923e+01
       E  2.28997e+01 -5.13264e-01  3.72451e+01
3
# CELL(abcABC): 1322.94304  1322.94304  1322.94304    90.00000    90.00000    90.00000  Step:        6800  Bead:      22 positions{angstrom}  cell{angstrom}
       E  1.77332e+01 -1.11658e+02 -6.33879e+01
       E  7.71369e+01 -1.47589e+01 -1.28202e+01
       E  1.08624e-01 -1.72252e+01  8.79615e+00
3
# CELL(abcABC): 1322.94304  1322.94304  1322.94304    90.00000    90.00000    90.00000  Step:        6900  Bead:      22 positions{angstrom}  cell{angstrom}
       E  3.03706e+01 -7.26611e+01 -4.99605e+01
       E  5.75147e+01 -4.50936e+01 -1.77684e+01
       E -3.65169e+01 -6.03728e+00 -3.55615e+01
3
# CELL(abcABC): 1322.94304  1322.94304  1322.94304    90.00000    90.00000    90.00000  Step:        7000  Bead:      22 positions{angstrom}  cell{angstrom}
       E  2.27812e+01 -3.65610e+01 -1.22107e+01
       E  5.11480e+01  8.72048e+00 -3.71362e+01
       E  3.44168e+01 -1.70234e+00 -4.29940e+01
3
# CELL(abcABC): 1322.94304  1322.94304  1322.94304    90.00000    90.00000    90.00000  Step:        7100  Bead:      22 positions{angstrom}  cell{angstrom}
       E  7.02126e+01 -1.28580e+01 -3.11846e+01
       E  1.42470e+01  5.11909e+00  1.29675e+01
       E  5.15052e+01  2.08783e+01 -2.96901e+01
3
# CELL(abcABC): 1322.94304  1322.94304  1322.94304    90.00000    90.00000    90.00000  Step:        7200  Bead:      22 positions{angstrom}  cell{angstrom}
       E  1.44550e+01 -2.72683e+01 -4.78723e+01
       E -5.10913e+01  5.43907e+01 -4.55951e-01
       E  8.73014e+01  5.21941e+01 -4.47465e+01
3
# CELL(abcABC): 1322.94304  1322.94304  1322.94304    90.00000    90.00000    90.00000  Step:        7300  Bead:      22 positions{angstrom}  cell{angstrom}
       E  4.01298e+01 -3.36337e+01 -4.26686e+01
       E -3.31629e+01  1.53516e+01  2.04182e+01
       E  7.18764e+01  2.47304e+01 -1.03162e+01
3
# CELL(abcABC): 1322.94304  1322.94304  1322.94304    90.00000    90.00000    90.00000  Step:        7400  Bead:      22 positions{angstrom}  cell{angstrom}
       E -6.91739e+00 -3.89919e+01 -1.81122e+01
       E -3.62091e+01 -2.75884e+01  6.56912e+00
       E  5.31818e+01  5.92223e+01 -8.14756e+00
3
# CELL(abcABC): 1322.94304  1322.94304  1322.94304    90.00000    90.00000    90.00000  Step:        7500  Bead:      22 positions{angstrom}  cell{angstrom}
       E -2.50963e+01 -5.35580e+01 -4.83786e+01
       E -2.47506e+01 -2.47820e+01  5.35828e+00
       E  7.35776e+01  6.44112e+00  2.38605e+00
3
# CELL(abcABC): 1322.94304  1322.94304  1322.94304    90.00000    90.00000    90.00000  Step:        7600  Bead:      22 positions{angstrom}  cell{angstrom}
       E -1.53487e+01 -4.89506e+01 -6.35238e+01
       E -4.19391e+01 -4.01824e+01  2.10377e+00
       E  4.47639e+01  2.24806e+01 -3.37152e+01
3
# CELL(abcABC): 1322.94304  1322.94304  1322.94304    90.00000    90.00000    90.00000  Step:        7700  Bead:      22 positions{angstrom}  cell{angstrom}
       E -9.12883e+00 -7.42274e+01 -4.65659e+01
       E -1.24750e+01 -3.73402e+01 -1.66624e+01
       E  7.04212e+01 -5.44297e+00 -1.41302e+01
3
# CELL(abcABC): 1322.94304  1322.94304  1322.94304    90.00000    90.00000    90.00000  Step:        7800  Bead:      22 positions{angstrom}  cell{angstrom}
       E  1.43820e+01 -6.15637e+01 -3.92757e+01
       E  1.18216e+01 -2.18510e+01 -3.04464e+01
       E  5.50367e+01 -5.30386e+00 -3.35941e+01
3
# CELL(abcABC): 1322.94304  1322.94304  1322.94304    90.00000    90.00000    90.00000  Step:        7900  Bead:      22 positions{angstrom}  cell{angstrom}
       E  3.92108e+01 -5.20095e+01 -5.05717e+01
       E  2.43201e+01 -4.20812e+01 -6.09169e+01
       E -2.83564e+00 -2.27165e+01 -2.67288e+01
3
# CELL(abcABC): 1322.94304  1322.94304  1322.94304    90.00000    90.00000    90.00000  Step:        8000  Bead:      22 positions{angstrom}  cell{angstrom}
       E  2.96080e+01 -2.29321e+01  5.17567e-01
       E -1.25271e+01  1.14801e+01 -4.23338e+01
       E  1.35282e+01 -6.35236e+00 -5.08292e+01
3
# CELL(abcABC): 1322.94304  1322.94304  1322.94304    90.00000    90.00000    90.00000  Step:        8100  Bead:      22 positions{angstrom}  cell{angstrom}
       E  2.68189e+00  2.75795e+01 -1.67691e+01
       E -3.88891e+01  1.01697e+01 -3.36751e+01
       E  1.20062e+01  2.67714e+00 -1.50475e+01
3
# CELL(abcABC): 1322.94304  1322.94304  1322.94304    90.00000    90.00000    90.00000  Step:        8200  Bead:      22 positions{angstrom}  cell{angstrom}
       E  2.28155e+00  2.36258e+01 -1.08607e+01
       E -7.24082e+00  9.82114e-02 -4.07981e+01
       E -1.94793e+00 -3.72577e+01  1.87088e+01
3
# CELL(abcABC): 1322.94304  1322.94304  1322.94304    90.00000    90.00000    90.00000  Step:        8300  Bead:      22 positions{angstrom}  cell{angstrom}
       E -1.97578e+01  4.32602e+01  1.06331e+01
       E -5.59559e+00  1.39667e+01 -2.22129e+01
       E  7.27330e-01 -4.70287e+01  4.48794e+01
3
# CELL(abcABC): 1322.94304  1322.94304  1322.94304    90.00000    90.00000    90.00000  Step:        8400  Bead:      22 positions{angstrom}  cell{angstrom}
       E -3.49677e+01  2.49177e+01  2.64615e+00
       E  1.22599e+01  1.34995e+01 -9.06367e+00
       E -2.18981e+01 -6.42870e+01  2.88837e+01
3
# CELL(abcABC): 1322.94304  1322.94304  1322.94304    90.00000    90.00000    90.00000  Step:        8500  Bead:      22 positions{angstrom}  cell{angstrom}
       E -8.92204e+00 -1.02600e+01 -2.50169e+01
       E  9.74832e+00  1.84145e+01  8.75492e+00
       E  1.27589e+01 -3.82509e+01  7.08166e+01
3
# CELL(abcABC): 1322.94304  1322.94304  1322.94304    90.00000    90.00000    90.00000  Step:        8600  Bead:      22 positions{angstrom}  cell{angstrom}
       E  2.32528e-02 -1.98808e+01 -1.49248e+01
       E  1.14798e+01  1.57181e+01  1.82886e+01
       E  7.22740e+01 -1.45547e+01  5.70408e+01
3
# CELL(abcABC): 1322.94304  1322.94304  1322.94304    90.00000    90.00000    90.00000  Step:        8700  Bead:      22 positions{angstrom}  cell{angstrom}
       E -3.71245e+00 -4.52536e+00  2.40961e+00
       E  1.92374e+01 -1.32028e+01  1.63860e+01
       E  4.97847e+01 -1.73734e+01  1.90321e+01
3
# CELL(abcABC): 1322.94304  1322.94304  1322.94304    90.00000    90.00000    90.00000  Step:        8800  Bead:      22 positions{angstrom}  cell{angstrom}
       E -3.94601e+01  2.06798e+01 -1.14867e+01
       E  1.97371e-01 -2.08290e+01  6.74327e+00
       E  1.00377e+02 -5.32643e+01 -2.22223e+01
3
# CELL(abcABC): 1322.94304  1322.94304  1322.94304    90.00000    90.00000    90.00000  Step:        8900  Bead:      22 positions{angstrom}  cell{angstrom}
       E -5.49787e+01  1.81104e+01  3.05318e+01
       E  3.25495e+01 -3.39447e+01  6.56905e+00
       E  7.32268e+01 -6.83514e+01  1.02309e+00
3
# CELL(abcABC): 1322.94304  1322.94304  1322.94304    90.00000    90.00000    90.00000  Step:        9000  Bead:      22 positions{angstrom}  cell{angstrom}
       E -3.46563e+01  4.65812e+00  3.25869e+01
       E  1.45984e+01 -6.76309e+00  5.79873e+01
       E  1.52540e+01 -4.55697e+01  1.51787e+01
3
# CELL(abcABC): 1322.94304  1322.94304  1322.94304    90.00000    90.00000    90.00000  Step:        9100  Bead:      22 positions{angstrom}  cell{angstrom}
       E -2.62720e+01  3.14907e+01 -4.82210e+00
       E  1.62722e+01 -2.47361e+01  5.49834e+01
       E  8.64537e+00 -1.34438e+01 -1.38114e+01
3
# CELL(abcABC): 1322.94304  1322.94304  1322.94304    90.00000    90.00000    90.00000  Step:        9200  Bead:      22 positions{angstrom}  cell{angstrom}
       E -4.47487e+00 -2.51938e+00 -1.81688e+01
       E -8.42337e+00  4.27210e+00  3.05948e+01
       E  4.90969e+01 -5.79951e+01  1.25107e+01
3
# CELL(abcABC): 1322.94304  1322.94304  1322.94304    90.00000    90.00000    90.00000  Step:        9300  Bead:      22 positions{angstrom}  cell{angstrom}
       E  1.74721e+01 -1.33081e+01 -2.81822e+01
       E -6.35322e+01 -3.17965e+01  2.37156e+01
       E  7.29325e+00 -3.08140e+01 -2.69744e+01
3
# CELL(abcABC): 1322.94304  1322.94304  1322.94304    90.00000    90.00000    90.00000  Step:        9400  Bead:      22 positions{angstrom}  cell{angstrom}
       E  1.37107e+01  1.86247e+01 -5.25691e+01
       E -3.11432e+01  5.50168e+00  6.57814e+01
       E  4.25342e+00 -1.43166e+01  3.19862e-01
3
# CELL(abcABC): 1322.94304  1322.94304  1322.94304    90.00000    90.00000    90.00000  Step:        9500  Bead:      22 positions{angstrom}  cell{angstrom}
       E  9.16919e+00  4.33270e+01 -3.27973e+01
       E  9.33771e+00 -5.21137e+01  4.80254e+01
       E  2.48993e+01 -5.46520e+01  1.41713e+01
3
# CELL(abcABC): 1322.94304  1322.94304  1322.94304    90.00000    90.00000    90.00000  Step:        9600  Bead:      22 positions{angstrom}  cell{angstrom}
       E  1.25479e+01  2.12676e+01 -4.34311e+01
       E  3.60095e+01 -8.12397e+01  1.00783e+01
       E  7.78191e+00 -2.87150e+00  4.71567e+00
3
# CELL(abcABC): 1322.94304  1322.94304  1322.94304    90.00000    90.00000    90.00000  Step:        9700  Bead:      22 positions{angstrom}  cell{angstrom}
       E -3.44328e+00 -4.75888e+01 -4.62513e+01
       E  2.60272e+01 -7.40515e+01  5.39397e+00
       E  2.12088e+01  9.98947e+00  2.57656e+00
3
# CELL(abcABC): 1322.94304  1322.94304  1322.94304    90.00000    90.00000    90.00000  Step:        9800  Bead:      22 positions{angstrom}  cell{angstrom}
       E -2.43467e+01 -5.19662e+01 -3.93920e+01
       E  1.54467e+01 -4.51246e+01  5.02196e+00
       E -2.29053e+01 -1.98953e+01  6.05623e+00
3