3
# CELL(abcABC): 1322.94304  1322.94304  1322.94304    90.00000    90.00000    90.00000  Step:           0  Bead:      18 positions{angstrom}  cell{angstrom}
       E  0.00000e+00  0.00000e+00  0.00000e+00
       E  0.00000e+00  0.00000e+00  0.00000e+00
       E  0.00000e+00  0.00000e+00  0.00000e+00
3
# CELL(abcABC): 1322.94304  1322.94304  1322.94304    90.00000    90.00000    90.00000  Step:         100  Bead:      18 positions{angstrom}  cell{angstrom}
       E  3.16108e+01 -9.23360e+00 -2.75995e+01
       E -7.54923e+00 -5.00549e+01 -1.80217e+01
       E -1.60773e+01  2.99976e+01 -3.14641e+01
3
# CELL(abcABC): 1322.94304  1322.94304  1322.94304    90.00000    90.00000    90.00000  Step:         200  Bead:      18 positions{angstrom}  cell{angstrom}
       E  2.70491e+01  1.91824e+01  6.42038e+00
       E  1.49570e+01 -4.68446e+01 -2.59522e+01
       E -8.13465e+00  3.12886e+01 -1.67904e+01
3
# CELL(abcABC): 1322.94304  1322.94304  1322.94304    90.00000    90.00000    90.00000  Step:         300  Bead:      18 positions{angstrom}  cell{angstrom}
       E  1.21469e+01 -3.29953e-01  1.82005e+01
       E  2.20261e+01 -1.61304e+00 -1.76528e+01
       E -2.78370e+01  4.66875e+01 -2.17827e+01
3
# CELL(abcABC): 1322.94304  1322.94304  1322.94304    90.00000    90.00000    90.00000  Step:         400  Bead:      18 positions{angstrom}  cell{angstrom}
       E -2.51574e+01  4.16756e+01  2.84164e+01
       E  7.17855e+01  8.00019e+00 -3.76066e+00
       E -3.59418e+01  2.51564e+01 -1.41636e+00
3
# CELL(abcABC): 1322.94304  1322.94304  1322.94304    90.00000    90.00000    90.00000  Step:         500  Bead:      18 positions{angstrom}  cell{angstrom}
       E -2.00265e+01  1.13940e+01  9.03743e+00
       E  5.24006e+01 -1.84793e+00 -2.05450e+00
       E -1.53183e+01 -2.11169e+01  2.31883e+01
3
# CELL(abcABC): 1322.94304  1322.94304  1322.94304    90.00000    90.00000    90.00000  Step:         600  Bead:      18 positions{angstrom}  cell{angstrom}
       E -1.44004e+01 -2.34067e+01 -1.50281e+01
       E  2.82936e+01  3.76213e+00 -1.72953e+01
       E -3.73816e-01 -1.88045e+01  2.02781e+01
3
# CELL(abcABC): 1322.94304  1322.94304  1322.94304    90.00000    90.00000    90.00000  Step:         700  Bead:      18 positions{angstrom}  cell{angstrom}
       E  9.01162e-01  8.93876e+00  1.76371e+01
       E  5.74700e+01  1.16913e+01 -3.29480e+00
       E  3.56292e+00 -2.43824e+01  1.81376e+01
3
# CELL(abcABC): 1322.94304  1322.94304  1322.94304    90.00000    90.00000    90.00000  Step:         800  Bead:      18 positions{angstrom}  cell{angstrom}
       E -8.67666e+00  1.37801e+01  1.50495e+01
       E  4.05579e+01  2.03538e+01  1.95995e+01
       E -2.65834e+01 -8.92883e+00  7.88961e+01
3
# CELL(abcABC): 1322.94304  1322.94304  1322.94304    90.00000    90.00000    90.00000  Step:         900  Bead:      18 positions{angstrom}  cell{angstrom}
       E -3.16748e+01  4.74108e+01 -4.95116e+01
       E  3.83738e+01  2.09906e+01 -2.06278e+01
       E -4.45105e+01 -1.56963e+01  6.49156e+01
3
# CELL(abcABC): 1322.94304  1322.94304  1322.94304    90.00000    90.00000    90.00000  Step:        1000  Bead:      18 positions{angstrom}  cell{angstrom}
       E -7.67501e-01  1.00878e+01 -4.13814e+01
       E  8.48119e-01 -8.44902e+00 -4.44426e+01
       E -4.82678e+01 -1.58945e+01  6.39926e+01
3
# CELL(abcABC): 1322.94304  1322.94304  1322.94304    90.00000    90.00000    90.00000  Step:        1100  Bead:      18 positions{angstrom}  cell{angstrom}
       E  3.37468e+01 -1.01652e+01 -4.98611e+01
       E  2.54433e+01  4.79830e+00 -4.89221e+01
       E -3.63915e+01  2.67557e+01  4.10028e+01
3
# CELL(abcABC): 1322.94304  1322.94304  1322.94304    90.00000    90.00000    90.00000  Step:        1200  Bead:      18 positions{angstrom}  cell{angstrom}
       E  2.00037e+00  2.49554e+01 -7.56745e+01
       E  3.95170e+01 -2.20319e+01 -2.95501e+01
       E -8.95193e+00  5.67009e+01  1.28763e+01
3
# CELL(abcABC): 1322.94304  1322.94304  1322.94304    90.00000    90.00000    90.00000  Step:        1300  Bead:      18 positions{angstrom}  cell{angstrom}
       E -1.61858e+01  3.82417e+01 -6.01118e+01
       E  5.11988e+01 -3.95748e+01 -4.50186e+01
       E -9.71890e+00  1.03215e+01 -5.38718e+00
3
# CELL(abcABC): 1322.94304  1322.94304  1322.94304    90.00000    90.00000    90.00000  Step:        1400  Bead:      18 positions{angstrom}  cell{angstrom}
       E -9.96904e+00  3.40647e+01 -4.55216e+01
       E  1.34607e+01 -7.62018e-01 -5.52296e+01
       E -3.12575e+00  1.49366e+00  8.45535e+00
3
# CELL(abcABC): 1322.94304  1322.94304  1322.94304    90.00000    90.00000    90.00000  Step:        1500  Bead:      18 positions{angstrom}  cell{angstrom}
       E  3.57742e+00  4.99158e+01 -3.41323e+01
       E -2.25910e+01  1.42699e+01 -2.13323e+01
       E -2.71735e+01  2.03696e+01 -8.20932e+00
3
# CELL(abcABC): 1322.94304  1322.94304  1322.94304    90.00000    90.00000    90.00000  Step:        1600  Bead:      18 positions{angstrom}  cell{angstrom}
       E -2.83704e+01  1.75488e+01 -2.80901e+01
       E -4.92508e+00  1.65796e+01 -2.04952e+01
       E -7.35771e+00  2.10902e+01 -9.26215e+00
3
# CELL(abcABC): 1322.94304  1322.94304  1322.94304    90.00000    90.00000    90.00000  Step:        1700  Bead:      18 positions{angstrom}  cell{angstrom}
       E -6.43769e+00  4.34234e+01  1.75767e+01
       E -3.32077e+01  3.37712e+01  1.75549e+01
       E -1.83816e+01  6.14253e+01  3.46717e+01
3
# CELL(abcABC): 1322.94304  1322.94304  1322.94304    90.00000    90.00000    90.00000  Step:        1800  Bead:      18 positions{angstrom}  cell{angstrom}
       E -5.37656e+00  3.13008e+01  4.65842e+01
       E -6.17269e+01  4.48479e+01  1.75769e+01
       E -6.65367e+01  8.67714e+01  4.41296e+01
3
# CELL(abcABC): 1322.94304  1322.94304  1322.94304    90.00000    90.00000    90.00000  Step:        1900  Bead:      18 positions{angstrom}  cell{angstrom}
       E  2.16680e+01  4.76660e+00  5.79325e+01
       E -6.15787e+01  2.98593e+01  2.55414e+01
       E -1.00145e+02  7.13560e+01  8.20457e+00
3
# CELL(abcABC): 1322.94304  1322.94304  1322.94304    90.00000    90.00000    90.00000  Step:        2000  Bead:      18 positions{angstrom}  cell{angstrom}
       E -2.56920e+01 -2.53701e+01  6.56373e+01
       E -7.16692e+01  2.13482e+01  1.59301e+01
       E -7.98503e+01  8.88101e+01  3.15772e+01
3
# CELL(abcABC): 1322.94304  1322.94304  1322.94304    90.00000    90.00000    90.00000  Step:        2100  Bead:      18 positions{angstrom}  cell{angstrom}
       E -4.45878e+01  4.62227e+00  4.09570e+01
       E -4.88121e+01  5.05605e+00  2.34279e+01
       E -8.77429e+01  9.67159e+01  2.63521e+01
3
# CELL(abcABC): 1322.94304  1322.94304  1322.94304    90.00000    90.00000    90.00000  Step:        2200  Bead:      18 positions{angstrom}  cell{angstrom}
       E -3.55442e+01  7.65700e+00  3.56653e+01
       E -1.36570e+01 -4.34685e+01 -1.56661e+01
       E -5.39167e+01  3.75039e+01  1.89216e+01
3
# CELL(abcABC): 1322.94304  1322.94304  1322.94304    90.00000    90.00000    90.00000  Step:        2300  Bead:      18 positions{angstrom}  cell{angstrom}
       E -7.86464e+01  3.86166e-02  5.37038e+01
       E -8.48559e+00 -1.54880e+01  6.88098e+00
       E  9.38903e+00 -3.07072e-01  1.51829e+01
3
# CELL(abcABC): 1322.94304  1322.94304  1322.94304    90.00000    90.00000    90.00000  Step:        2400  Bead:      18 positions{angstrom}  cell{angstrom}
       E -6.68500e+01 -6.75372e+00  2.89035e+01
       E -1.44098e+01 -1.05109e+01 -2.09159e+01
       E  5.16084e+00 -2.99004e-01  1.55944e+01
3
# CELL(abcABC): 1322.94304  1322.94304  1322.94304    90.00000    90.00000    90.00000  Step:        2500  Bead:      18 positions{angstrom}  cell{angstrom}
       E -5.69580e+01  2.21583e+01 -7.85729e-01
       E -1.11987e+01 -7.29799e+01 -6.81320e+01
       E  3.14413e+01 -1.74022e+01  3.82074e+01
3
# CELL(abcABC): 1322.94304  1322.94304  1322.94304    90.00000    90.00000    90.00000  Step:        2600  Bead:      18 positions{angstrom}  cell{angstrom}
       E -3.62528e+01  1.39553e+01  1.43723e+01
       E -5.23914e+01 -4.95529e+01 -6.65868e+01
       E  5.89786e+00 -4.47169e+01  3.98870e+01
3
# CELL(abcABC): 1322.94304  1322.94304  1322.94304    90.00000    90.00000    90.00000  Step:        2700  Bead:      18 positions{angstrom}  cell{angstrom}
       E -8.72607e+00  9.74680e+00  2.77854e+01
       E -6.15663e+01 -3.15807e+01 -2.34179e+01
       E  2.48690e+01 -1.10421e+01  3.40652e+01
3
# CELL(abcABC): 1322.94304  1322.94304  1322.94304    90.00000    90.00000    90.00000  Step:        2800  Bead:      18 positions{angstrom}  cell{angstrom}
       E -4.75972e+01  9.16304e+00  4.15928e+01
       E -8.43240e+01 -5.53126e+01 -5.90043e+01
       E  1.36810e+01 -1.96816e+01  3.65620e+01
3
# CELL(abcABC): 1322.94304  1322.94304  1322.94304    90.00000    90.00000    90.00000  Step:        2900  Bead:      18 positions{angstrom}  cell{angstrom}
       E -5.05005e+01  3.88159e+00  4.69832e+01
       E -8.68551e+01 -6.39956e+01 -1.39913e+01
       E  1.12254e+01  1.19509e+01 -2.88206e-01
3
# CELL(abcABC): 1322.94304  1322.94304  1322.94304    90.00000    90.00000    90.00000  Step:        3000  Bead:      18 positions{angstrom}  cell{angstrom}
       E -1.43930e+01 -3.13224e+00  5.79993e+01
       E -5.33036e+01 -6.67045e+01  1.39466e+01
       E  9.40714e+00  1.97248e+01  3.86029e+01
3
# CELL(abcABC): 1322.94304  1322.94304  1322.94304    90.00000    90.00000    90.00000  Step:        3100  Bead:      18 positions{angstrom}  cell{angstrom}
       E -4.02190e+01 -1.02031e+01  6.41243e+01
       E -7.24316e+01 -5.21910e+01  1.23567e+01
       E  1.68543e+01  3.76691e+01  3.64802e+01
3
# CELL(abcABC): 1322.94304  1322.94304  1322.94304    90.00000    90.00000    90.00000  Step:        3200  Bead:      18 positions{angstrom}  cell{angstrom}
       E -1.94250e+00  2.21869e+01  7.18082e+00
       E -9.92854e+01 -3.71780e+01  4.42880e+01
       E  4.00304e+01  4.01574e+01  3.92945e+01
3
# CELL(abcABC): 1322.94304  1322.94304  1322.94304    90.00000    90.00000    90.00000  Step:        3300  Bead:      18 positions{angstrom}  cell{angstrom}
       E  2.77391e+00  1.69747e+01  2.79293e+01
       E -8.42145e+01 -7.59642e+01  3.79867e+01
       E  2.91330e-01  7.11668e+01  3.37259e+01
3
# CELL(abcABC): 1322.94304  1322.94304  1322.94304    90.00000    90.00000    90.00000  Step:        3400  Bead:      18 positions{angstrom}  cell{angstrom}
       E -2.74963e+01  1.70799e+01  6.67311e+01
       E -8.49834e+01 -2.37670e+01  4.66235e+01
       E -2.08594e+01  5.55745e+01  3.49537e+01
3
# CELL(abcABC): 1322.94304  1322.94304  1322.94304    90.00000    90.00000    90.00000  Step:        3500  Bead:      18 positions{angstrom}  cell{angstrom}
       E -7.31378e+01  3.00408e+01  2.43930e+01
       E -3.60239e+01 -3.23097e+01  2.76270e+01
       E -2.69158e+01  5.46074e+00  5.44708e+01
3
# CELL(abcABC): 1322.94304  1322.94304  1322.94304    90.00000    90.00000    90.00000  Step:        3600  Bead:      18 positions{angstrom}  cell{angstrom}
       E -4.23677e+01  2.73989e+01  2.56022e+01
       E -1.01983e+01 -2.54377e+01  2.26784e+01
       E -4.14360e+01  1.18354e+01  3.21684e+01
3
# CELL(abcABC): 1322.94304  1322.94304  1322.94304    90.00000    90.00000    90.00000  Step:        3700  Bead:      18 positions{angstrom}  cell{angstrom}
       E -5.33247e+01  1.79240e+01 -3.17683e+01
       E -2.20277e+00 -1.04329e+01  2.13430e+01
       E -6.99733e+01  2.32577e+01 -1.88421e+01
3
# CELL(abcABC): 1322.94304  1322.94304  1322.94304    90.00000    90.00000    90.00000  Step:        3800  Bead:      18 positions{angstrom}  cell{angstrom}
       E -9.34822e+01 -4.83899e+00 -1.72383e+01
       E -1.65435e+01 -6.25357e+01 -9.05845e+00
       E -6.59551e+01  2.01473e+01 -3.29378e+01
3
# CELL(abcABC): 1322.94304  1322.94304  1322.94304    90.00000    90.00000    90.00000  Step:        3900  Bead:      18 positions{angstrom}  cell{angstrom}
       E -1.13391e+02  1.55746e+01 -2.05255e+01
       E -3.78085e+01 -3.62678e+01 -4.37294e+00
       E -3.71346e+01  1.09090e+01 -2.27041e+01
3
# CELL(abcABC): 1322.94304  1322.94304  1322.94304    90.00000    90.00000    90.00000  Step:        4000  Bead:      18 positions{angstrom}  cell{angstrom}
       E -1.11834e+02  2.70592e+01 -3.51406e+01
       E -2.64231e+01 -1.94127e+01  3.22697e+01
       E -2.77957e+01  3.58453e+01  3.28655e+01
3
# CELL(abcABC): 1322.94304  1322.94304  1322.94304    90.00000    90.00000    90.00000  Step:        4100  Bead:      18 positions{angstrom}  cell{angstrom}
       E -4.73993e+01  1.96189e+01 -8.56857e+01
       E -5.48989e+01  1.89038e+01 -1.40267e+01
       E -2.70245e+01 -8.48874e+00  2.74011e+01
3
# CELL(abcABC): 1322.94304  1322.94304  1322.94304    90.00000    90.00000    90.00000  Step:        4200  Bead:      18 positions{angstrom}  cell{angstrom}
       E -5.67459e+01 -2.07969e+01 -9.53242e+01
       E -6.58616e+01  3.50361e+01  3.95454e+01
       E -1.63373e+01 -9.72198e+00  4.32612e+01
3
# CELL(abcABC): 1322.94304  1322.94304  1322.94304    90.00000    90.00000    90.00000  Step:        4300  Bead:      18 positions{angstrom}  cell{angstrom}
       E -1.79770e+01  4.44953e+01 -3.81470e+01
       E -4.33355e+01  9.75510e+00  1.04545e+01
       E  1.15293e+01 -1.40602e+01  3.89637e+01
3
# CELL(abcABC): 1322.94304  1322.94304  1322.94304    90.00000    90.00000    90.00000  Step:        4400  Bead:      18 positions{angstrom}  cell{angstrom}
       E -3.77988e+01  6.25571e-01 -5.78629e+01
       E -1.02785e+01  7.66994e+01 -7.90202e+00
       E  3.23928e+00 -1.76402e+01  1.78038e+00
3
# CELL(abcABC): 1322.94304  1322.94304  1322.94304    90.00000    90.00000    90.00000  Step:        4500  Bead:      18 positions{angstrom}  cell{angstrom}
       E -2.49326e+01  1.50589e+01 -8.89369e+01
       E -3.48550e+01  8.84653e+01  1.89852e+00
       E -1.24245e+01 -3.07828e+01  3.08535e+01
3
# CELL(abcABC): 1322.94304  1322.94304  1322.94304    90.00000    90.00000    90.00000  Step:        4600  Bead:      18 positions{angstrom}  cell{angstrom}
       E -3.07435e+00  1.56687e+01 -7.10855e+01
       E -5.45911e+01  1.19922e+02 -5.74516e+00
       E -6.11970e-01  1.16889e+00  3.12057e+00
3
# CELL(abcABC): 1322.94304  1322.94304  1322.94304    90.00000    90.00000    90.00000  Step:        4700  Bead:      18 positions{angstrom}  cell{angstrom}
       E -1.62170e+01  3.03584e+01 -2.65276e+01
       E -4.67194e+01  6.77564e+01  3.34562e-01
       E  8.49113e+00  1.06072e+01 -3.14060e+01
3
# CELL(abcABC): 1322.94304  1322.94304  1322.94304    90.00000    90.00000    90.00000  Step:        4800  Bead:      18 positions{angstrom}  cell{angstrom}
       E -3.18260e+01 -5.78188e+00 -2.62897e+01
       E -4.29197e+01  2.07729e+01 -1.30638e+01
       E  3.60954e+01 -1.65613e+01  2.25308e+01
3
# CELL(abcABC): 1322.94304  1322.94304  1322.94304    90.00000    90.00000    90.00000  Step:        4900  Bead:      18 positions{angstrom}  cell{angstrom}
       E  3.01307e+01  2.85789e+00  1.44737e+01
       E -2.83801e+01  1.69482e+01 -2.36960e+01
       E  3.56260e+01 -1.70853e+01  1.35430e+01
3
# CELL(abcABC): 1322.94304  1322.94304  1322.94304    90.00000    90.00000    90.00000  Step:        5000  Bead:      18 positions{angstrom}  cell{angstrom}
       E  3.60475e+01  5.22806e+00  1.72970e+01
       E -3.13446e+01  1.42456e+00 -2.51117e+01
       E  7.33760e+00  2.01456e-01 -1.87260e+01
3
# CELL(abcABC): 1322.94304  1322.94304  1322.94304    90.00000    90.00000    90.00000  Step:        5100  Bead:      18 positions{angstrom}  cell{angstrom}
       E  1.78049e+01  2.15659e+01  1.50030e+01
       E -5.84814e+01  1.21765e+01 -4.26870e+01
       E -8.12230e+00 -2.44407e+01 -3.64190e+01
3
# CELL(abcABC): 1322.94304  1322.94304  1322.94304    90.00000    90.00000    90.00000  Step:        5200  Bead:      18 positions{angstrom}  cell{angstrom}
       E -3.12133e+00  2.06532e+01  1.82539e+01
       E -3.84765e+01  1.04662e+01 -1.77799e+01
       E -1.80800e+01  4.46104e+01 -1.48621e+01
3
# CELL(abcABC): 1322.94304  1322.94304  1322.94304    90.00000    90.00000    90.00000  Step:        5300  Bead:      18 positions{angstrom}  cell{angstrom}
       E  2.94315e+00  1.10381e+01  2.27697e+01
       E -1.00845e+01  3.45684e+01 -1.61328e+01
       E -3.66161e+01  5.92866e+01  6.16002e+00
3
# CELL(abcABC): 1322.94304  1322.94304  1322.94304    90.00000    90.00000    90.00000  Step:        5400  Bead:      18 positions{angstrom}  cell{angstrom}
       E  5.10446e+00 -3.17272e+01  2.56298e+01
       E  8.21045e+00  2.13422e+00  2.66489e-01
       E -4.12247e+01  1.94254e+01  6.08731e+01
3
# CELL(abcABC): 1322.94304  1322.94304  1322.94304    90.00000    90.00000    90.00000  Step:        5500  Bead:      18 positions{angstrom}  cell{angstrom}
       E  1.44691e+01  8.34624e-01 -1.20152e+01
       E -2.27467e+01  4.07649e+00 -6.64400e+00
       E -4.85126e+01 -3.08899e+01  8.02253e+01
3
# CELL(abcABC): 1322.94304  1322.94304  1322.94304    90.00000    90.00000    90.00000  Step:        5600  Bead:      18 positions{angstrom}  cell{angstrom}
       E -9.95289e+00 -2.22200e+00 -6.39987e+00
       E -6.79717e+01 -2.93832e+01  1.98807e+01
       E -2.84959e+01 -6.01975e-01  1.84600e+01
3
# CELL(abcABC): 1322.94304  1322.94304  1322.94304    90.00000    90.00000    90.00000  Step:        5700  Bead:      18 positions{angstrom}  cell{angstrom}
       E -4.74870e-01 -4.75833e+01 -3.99232e+01
       E -6.11076e+01  1.32567e+01 -3.87024e+00
       E -4.80820e+01 -1.39183e+01 -5.16169e+00
3
# CELL(abcABC): 1322.94304  1322.94304  1322.94304    90.00000    90.00000    90.00000  Step:        5800  Bead:      18 positions{angstrom}  cell{angstrom}
       E  1.00675e+01 -7.99683e+00 -1.01221e+01
       E -2.52986e+01  3.22722e+01 -3.20776e+01
       E -3.59784e+01  2.20828e+01  2.15597e+00
3
# CELL(abcABC): 1322.94304  1322.94304  1322.94304    90.00000    90.00000    90.00000  Step:        5900  Bead:      18 positions{angstrom}  cell{angstrom}
       E  2.81929e+01  1.58751e+00 -1.44876e+01
       E -2.08236e+01 -6.88808e+00  1.54783e+01
       E -8.76381e-01 -2.62821e+01 -3.25204e+01
3
# CELL(abcABC): 1322.94304  1322.94304  1322.94304    90.00000    90.00000    90.00000  Step:        6000  Bead:      18 positions{angstrom}  cell{angstrom}
       E  1.13923e+00 -3.99809e+01  1.76049e+01
       E  1.43169e+01  1.06177e+01  1.18887e+01
       E -8.17138e+00 -1.85861e+01 -4.80940e+00
3
# CELL(abcABC): 1322.94304  1322.94304  1322.94304    90.00000    90.00000    90.00000  Step:        6100  Bead:      18 positions{angstrom}  cell{angstrom}
       E -2.04970e+01 -3.84376e+01 -3.30022e+01
       E  5.03597e+01  2.40109e+00  1.52664e+01
       E  2.94936e+01  6.12132e+00 -3.58897e+01
3
# CELL(abcABC): 1322.94304  1322.94304  1322.94304    90.00000    90.00000    90.00000  Step:        6200  Bead:      18 positions{angstrom}  cell{angstrom}
       E -3.08419e+00 -2.73095e+01 -7.83413e+01
       E  9.50119e+01  1.91024e+01  1.84894e+01
       E  1.57390e+01 -3.60869e+01  1.17557e+01
3
# CELL(abcABC): 1322.94304  1322.94304  1322.94304    90.00000    90.00000    90.00000  Step:        6300  Bead:      18 positions{angstrom}  cell{angstrom}
       E -6.65423e+00 -2.51915e+01 -8.86272e+01
       E  1.05583e+02  6.84267e+00 -2.62428e+01
       E  7.03028e+00 -2.71333e+01  3.13172e+00
3
# CELL(abcABC): 1322.94304  1322.94304  1322.94304    90.00000    90.00000    90.00000  Step:        6400  Bead:      18 positions{angstrom}  cell{angstrom}
       E  2.63411e+01 -3.36482e+01 -1.09250e+02
       E  3.97585e+01  1.96425e+01 -4.29752e+01
       E  2.58271e+01 -1.49421e+01 -1.33324e+01
3
# CELL(abcABC): 1322.94304  1322.94304  1322.94304    90.00000    90.00000    90.00000  Step:        6500  Bead:      18 positions{angstrom}  cell{angstrom}
       E  1.97357e+01 -6.21706e+01 -9.73864e+01
       E  1.86505e+01  2.04021e+01 -2.08699e+01
       E  4.25067e+01 -1.01141e+01 -2.62978e+01
3
# CELL(abcABC): 1322.94304  1322.94304  1322.94304    90.00000    90.00000    90.00000  Step:        6600  Bead:      18 positions{angstrom}  cell{angstrom}
       E  2.05342e+01 -7.97746e+01 -6.34217e+01
       E  2.33628e+01 -4.08176e+00 -3.04407e+01
       E  5.16992e+01 -1.50694e+01  4.34223e+00
3
# CELL(abcABC): 1322.94304  1322.94304  1322.94304    90.00000    90.00000    90.00000  Step:        6700  Bead:      18 positions{angstrom}  cell{angstrom}
       E -4.30443e+00 -1.13370e+02 -5.64322e+01
       E  1.79780e+01  1.06963e+01 -9.07633e+00
       E  1.83203e+01 -9.83365e-01  4.04298e+01
3
# CELL(abcABC): 1322.94304  1322.94304  1322.94304    90.00000    90.00000    90.00000  Step:        6800  Bead:      18 positions{angstrom}  cell{angstrom}
       E -1.28699e+01 -9.67102e+01 -6.56110e+01
       E  8.78077e+00 -2.88374e+01 -3.16895e+01
       E -1.13564e+00 -1.70868e+01 -9.81838e+00
3
# CELL(abcABC): 1322.94304  1322.94304  1322.94304    90.00000    90.00000    90.00000  Step:        6900  Bead:      18 positions{angstrom}  cell{angstrom}
       E  6.94209e+00 -6.86769e+01 -2.69913e+01
       E  1.94090e+01 -4.54714e+01 -3.39903e+01
       E -2.06173e+01 -1.33903e+01 -1.94414e+01
3
# CELL(abcABC): 1322.94304  1322.94304  1322.94304    90.00000    90.00000    90.00000  Step:        7000  Bead:      18 positions{angstrom}  cell{angstrom}
       E  5.31190e+01 -5.62189e+01  1.60337e+01
       E  2.60209e+01 -1.76685e+01 -3.58414e+01
       E  2.19789e-01  1.86127e+01 -3.48463e+01
3
# CELL(abcABC): 1322.94304  1322.94304  1322.94304    90.00000    90.00000    90.00000  Step:        7100  Bead:      18 positions{angstrom}  cell{angstrom}
       E  4.01135e+01 -2.89115e+01 -2.13763e+00
       E  5.00789e+00 -1.58087e+01  9.20189e+00
       E  6.03732e+01  2.22596e+01 -5.81918e+01
3
# CELL(abcABC): 1322.94304  1322.94304  1322.94304    90.00000    90.00000    90.00000  Step:        7200  Bead:      18 positions{angstrom}  cell{angstrom}
       E  4.28491e+01 -4.50806e+01 -5.06360e+01
       E -3.44514e+01  3.46753e+01  4.29562e+01
       E  3.24894e+01  4.76129e+01 -2.11859e+01
3
# CELL(abcABC): 1322.94304  1322.94304  1322.94304    90.00000    90.00000    90.00000  Step:        7300  Bead:      18 positions{angstrom}  cell{angstrom}
       E  3.77748e+01 -2.43726e+01 -5.60210e+01
       E -3.64544e+01  3.09050e+01  4.39045e+01
       E  4.50533e+01  5.54632e+01 -2.81957e+01
3
# CELL(abcABC): 1322.94304  1322.94304  1322.94304    90.00000    90.00000    90.00000  Step:        7400  Bead:      18 positions{angstrom}  cell{angstrom}
       E -4.13494e-01 -4.08870e+01 -3.68031e+01
       E -2.86173e+01  2.08523e+01  7.42226e+00
       E  4.89261e+01  3.25820e+01 -4.34428e+00
3
# CELL(abcABC): 1322.94304  1322.94304  1322.94304    90.00000    90.00000    90.00000  Step:        7500  Bead:      18 positions{angstrom}  cell{angstrom}
       E  1.19399e+01 -7.22008e+01 -5.60500e+01
       E -5.50461e+01 -1.66093e+01  3.83976e+00
       E  9.13290e+01  5.08761e+01 -1.81334e+01
3
# CELL(abcABC): 1322.94304  1322.94304  1322.94304    90.00000    90.00000    90.00000  Step:        7600  Bead:      18 positions{angstrom}  cell{angstrom}
       E  7.06440e-01 -7.24748e+01 -3.80031e+01
       E -1.12055e+01 -3.62876e+01 -4.17647e+00
       E  2.48533e+01  2.34162e+01 -2.36472e+01
3
# CELL(abcABC): 1322.94304  1322.94304  1322.94304    90.00000    90.00000    90.00000  Step:        7700  Bead:      18 positions{angstrom}  cell{angstrom}
       E  1.36892e+01 -5.49021e+01 -2.77179e+01
       E -2.30915e+01 -4.12985e+01 -3.48042e+01
       E  6.22623e+01  7.70473e+00 -2.97862e+01
3
# CELL(abcABC): 1322.94304  1322.94304  1322.94304    90.00000    90.00000    90.00000  Step:        7800  Bead:      18 positions{angstrom}  cell{angstrom}
       E  1.48531e+01 -8.26615e+01 -7.09869e+01
       E -4.50158e+00 -3.45891e+01 -9.52065e+00
       E  2.43164e+01 -1.31185e+01 -2.11002e+01
3
# CELL(abcABC): 1322.94304  1322.94304  1322.94304    90.00000    90.00000    90.00000  Step:        7900  Bead:      18 positions{angstrom}  cell{angstrom}
       E  2.02989e+01 -5.21403e+01 -3.54615e+01
       E -1.36746e+01 -1.62790e+01 -3.98646e+01
       E -8.53030e+00 -2.21221e+01 -5.69479e+01
3
# CELL(abcABC): 1322.94304  1322.94304  1322.94304    90.00000    90.00000    90.00000  Step:        8000  Bead:      18 positions{angstrom}  cell{angstrom}
       E  5.68421e+00 -6.66869e+00 -9.70101e+00
       E -2.42052e+01 -7.16808e+00 -8.43669e+00
       E  4.91739e+01 -2.63545e+01 -2.80934e+01
3
# CELL(abcABC): 1322.94304  1322.94304  1322.94304    90.00000    90.00000    90.00000  Step:        8100  Bead:      18 positions{angstrom}  cell{angstrom}
       E -1.52918e+01  2.95075e+00 -5.96693e+01
       E -3.38996e+01  7.27329e+00 -3.88369e+00
       E  3.55883e+01 -2.83295e+00 -1.09258e+01
3
# CELL(abcABC): 1322.94304  1322.94304  1322.94304    90.00000    90.00000    90.00000  Step:        8200  Bead:      18 positions{angstrom}  cell{angstrom}
       E -6.46197e+00  2.65836e+01 -5.93344e+01
       E -3.06970e+01 -2.80733e+01 -1.94970e+01
       E  3.20954e+00 -5.10717e+01  5.68874e+01
3
# CELL(abcABC): 1322.94304  1322.94304  1322.94304    90.00000    90.00000    90.00000  Step:        8300  Bead:      18 positions{angstrom}  cell{angstrom}
       E  2.60702e+01  2.90385e+01 -3.69376e+01
       E -3.28083e+01  5.24245e+00 -1.69708e+01
       E  1.10658e+01 -4.43053e+01  4.68845e+01
3
# CELL(abcABC): 1322.94304  1322.94304  1322.94304    90.00000    90.00000    90.00000  Step:        8400  Bead:      18 positions{angstrom}  cell{angstrom}
       E -1.43203e+01  1.83108e+01 -1.79768e+01
       E  2.26504e+01  3.87284e+01  3.55092e+00
       E  1.10324e-01 -5.19474e+01  5.39069e+01
3
# CELL(abcABC): 1322.94304  1322.94304  1322.94304    90.00000    90.00000    90.00000  Step:        8500  Bead:      18 positions{angstrom}  cell{angstrom}
       E -1.55650e+01 -3.77269e+01 -8.99960e+00
       E  3.49542e+01  1.17923e+01 -4.31073e+01
       E  1.59831e+01 -3.48308e+01  4.94674e+01
3
# CELL(abcABC): 1322.94304  1322.94304  1322.94304    90.00000    90.00000    90.00000  Step:        8600  Bead:      18 positions{angstrom}  cell{angstrom}
       E -3.34115e+00 -1.77921e+01 -2.36751e+01
       E  2.54883e+01  7.28517e+00 -1.71427e+01
       E  1.10241e+01 -2.49227e+01  5.72111e+01
3
# CELL(abcABC): 1322.94304  1322.94304  1322.94304    90.00000    90.00000    90.00000  Step:        8700  Bead:      18 positions{angstrom}  cell{angstrom}
       E  3.43933e+00 -1.35672e+01  1.24647e+01
       E  1.56943e+01  1.94345e+01 -3.15391e+01
       E  4.79730e+01 -2.74854e+01  4.71180e+01
3
# CELL(abcABC): 1322.94304  1322.94304  1322.94304    90.00000    90.00000    90.00000  Step:        8800  Bead:      18 positions{angstrom}  cell{angstrom}
       E  5.44672e+00  3.36317e+01 -1.39760e+00
       E  1.63348e+01 -7.66145e+00 -2.08352e+01
       E  6.65693e+01 -5.82263e+01  2.55553e+01
3
# CELL(abcABC): 1322.94304  1322.94304  1322.94304    90.00000    90.00000    90.00000  Step:        8900  Bead:      18 positions{angstrom}  cell{angstrom}
       E -4.82550e+01  3.79632e+01  1.61570e+01
       E -1.15330e+01 -1.16183e+01  1.05161e+00
       E  5.91242e+01 -6.64945e+01  1.51241e+01
3
# CELL(abcABC): 1322.94304  1322.94304  1322.94304    90.00000    90.00000    90.00000  Step:        9000  Bead:      18 positions{angstrom}  cell{angstrom}
       E -4.68497e+01  2.63242e+01  3.34942e+01
       E  1.31980e+01  1.28901e+01  6.41867e+01
       E  3.97339e+01 -3.49796e+01  3.17126e+01
3
# CELL(abcABC): 1322.94304  1322.94304  1322.94304    90.00000    90.00000    90.00000  Step:        9100  Bead:      18 positions{angstrom}  cell{angstrom}
       E -1.42989e+01  1.52433e+01  1.42901e+01
       E  1.14481e+01 -2.10850e+01  7.37994e+01
       E  3.84785e+01 -1.45893e+01  1.93775e+01
3
# CELL(abcABC): 1322.94304  1322.94304  1322.94304    90.00000    90.00000    90.00000  Step:        9200  Bead:      18 positions{angstrom}  cell{angstrom}
       E  2.75034e+01  7.93381e+00  2.26275e+01
       E -1.68392e+01 -7.83072e+00  4.49936e+01
       E  2.59511e+01 -5.24998e+01  8.01605e+00
3
# CELL(abcABC): 1322.94304  1322.94304  1322.94304    90.00000    90.00000    90.00000  Step:        9300  Bead:      18 positions{angstrom}  cell{angstrom}
       E -1.67929e+01  3.78159e+00 -9.22698e+00
       E -3.98076e+01  1.69586e+01  1.38278e+01
       E -6.88827e+00 -5.23877e+01 -2.59414e+00
3
# CELL(abcABC): 1322.94304  1322.94304  1322.94304    90.00000    90.00000    90.00000  Step:        9400  Bead:      18 positions{angstrom}  cell{angstrom}
       E -1.68643e+01  4.82303e+01 -1.94778e+01
       E -4.38254e+01 -2.00023e+01  2.74847e+01
       E  6.69541e+00 -5.16872e+01  2.57624e+01
3
# CELL(abcABC): 1322.94304  1322.94304  1322.94304    90.00000    90.00000    90.00000  Step:        9500  Bead:      18 positions{angstrom}  cell{angstrom}
       E  3.34590e+01  6.47413e+01 -5.15380e+01
       E -2.04507e+01 -4.37294e+01 -7.00771e-01
       E  2.18542e+01 -2.56966e+01  4.05591e+01
3
# CELL(abcABC): 1322.94304  1322.94304  1322.94304    90.00000    90.00000    90.00000  Step:        9600  Bead:      18 positions{angstrom}  cell{angstrom}
       E  1.54640e+01  1.79156e+01 -4.94611e+01
       E  1.61152e+01 -5.67419e+01  2.85408e+01
       E -1.26140e+01 -3.62798e+01  2.25449e+01
3
# CELL(abcABC): 1322.94304  1322.94304  1322.94304    90.00000    90.00000    90.00000  Step:        9700  Bead:      18 positions{angstrom}  cell{angstrom}
       E  1.10977e+01 -4.09816e+01 -4.22117e+01
       E  1.42450e+01 -7.04465e+01  1.80995e+01
       E -7.19921e+00  8.95395e+00  5.27684e+00
3
# CELL(abcABC): 1322.94304  1322.94304  1322.94304    90.00000    90.00000    90.00000  Step:        9800  Bead:      18 positions{angstrom}  cell{angstrom}
       E -2.78987e+01 -6.34602e+01 -2.43737e+01
       E  5.51337e+00 -9.39731e+01  9.54576e+00
       E  9.32961e+00 -2.66549e+01  4.73625e+01
3