3
# CELL(abcABC): 1322.94304  1322.94304  1322.94304    90.00000    90.00000    90.00000  Step:           0  Bead:      13 positions{angstrom}  cell{angstrom}
       E  0.00000e+00  0.00000e+00  0.00000e+00
       E  0.00000e+00  0.00000e+00  0.00000e+00
       E  0.00000e+00  0.00000e+00  0.00000e+00
3
# CELL(abcABC): 1322.94304  1322.94304  1322.94304    90.00000    90.00000    90.00000  Step:         100  Bead:      13 positions{angstrom}  cell{angstrom}
       E -7.55178e+00 -1.40545e+01  1.28901e+01
       E  3.50881e+01  2.52887e+00  5.33494e-01
       E -3.81070e+01  8.38322e+00 -2.37636e+01
3
# CELL(abcABC): 1322.94304  1322.94304  1322.94304    90.00000    90.00000    90.00000  Step:         200  Bead:      13 positions{angstrom}  cell{angstrom}
       E  1.76827e+01  1.22861e+01  3.41328e+00
       E  2.00906e+01 -1.46359e+01 -3.49616e+01
       E -5.26197e+01 -1.72014e+00 -2.28180e+00
3
# CELL(abcABC): 1322.94304  1322.94304  1322.94304    90.00000    90.00000    90.00000  Step:         300  Bead:      13 positions{angstrom}  cell{angstrom}
       E -1.33093e+01  4.62815e+01 -5.06995e+00
       E  1.97077e+01 -8.44287e+00 -4.55473e+01
       E -4.27219e+01  2.84032e+01  2.22756e+01
3
# CELL(abcABC): 1322.94304  1322.94304  1322.94304    90.00000    90.00000    90.00000  Step:         400  Bead:      13 positions{angstrom}  cell{angstrom}
       E -3.04785e+01  2.87187e+01  7.40259e+00
       E  2.47809e+01  3.90366e+01 -1.13818e+01
       E -2.02195e+01  2.76337e+01  9.53049e+00
3
# CELL(abcABC): 1322.94304  1322.94304  1322.94304    90.00000    90.00000    90.00000  Step:         500  Bead:      13 positions{angstrom}  cell{angstrom}
       E -3.66252e+01  2.57940e+01 -2.33615e+01
       E  4.69033e+01  2.90281e+01 -4.75840e+00
       E  1.80558e+01  9.33612e+00  2.81471e+01
3
# CELL(abcABC): 1322.94304  1322.94304  1322.94304    90.00000    90.00000    90.00000  Step:         600  Bead:      13 positions{angstrom}  cell{angstrom}
       E  5.42107e+00  1.77319e+01 -4.43148e+01
       E  3.45191e+01 -4.96361e+00  3.02102e+01
       E  9.64979e+00 -1.59794e+01  1.61882e+01
3
# CELL(abcABC): 1322.94304  1322.94304  1322.94304    90.00000    90.00000    90.00000  Step:         700  Bead:      13 positions{angstrom}  cell{angstrom}
       E -4.48251e+01  2.78753e+01 -2.24706e+01
       E  2.54001e+01  3.24023e+01  4.02228e+01
       E  8.69343e+00  1.27955e+01  2.78622e+01
3
# CELL(abcABC): 1322.94304  1322.94304  1322.94304    90.00000    90.00000    90.00000  Step:         800  Bead:      13 positions{angstrom}  cell{angstrom}
       E -1.62298e+01  1.26510e+01  1.09785e+00
       E -2.34712e+01  3.82637e+01 -1.65684e+01
       E -2.13900e+01  1.19012e+01  3.68455e+01
3
# CELL(abcABC): 1322.94304  1322.94304  1322.94304    90.00000    90.00000    90.00000  Step:         900  Bead:      13 positions{angstrom}  cell{angstrom}
       E  1.37704e+01  1.35625e+01 -9.90478e-01
       E  2.55925e+01  3.39709e+01 -2.85156e+01
       E -3.26861e+01 -9.82079e+00  6.18324e+01
3
# CELL(abcABC): 1322.94304  1322.94304  1322.94304    90.00000    90.00000    90.00000  Step:        1000  Bead:      13 positions{angstrom}  cell{angstrom}
       E  1.26213e+01  4.31566e-01 -4.50715e+01
       E  3.34583e+01 -1.10438e+01 -4.67660e+01
       E -2.18919e+01 -9.43890e+00  4.88248e+01
3
# CELL(abcABC): 1322.94304  1322.94304  1322.94304    90.00000    90.00000    90.00000  Step:        1100  Bead:      13 positions{angstrom}  cell{angstrom}
       E  2.66320e+01  3.79780e+00 -4.82941e+01
       E -8.79739e+00 -1.09297e+01 -5.75526e+01
       E -2.42539e+01  5.13890e+01  4.76270e+01
3
# CELL(abcABC): 1322.94304  1322.94304  1322.94304    90.00000    90.00000    90.00000  Step:        1200  Bead:      13 positions{angstrom}  cell{angstrom}
       E -1.22141e+01  1.51733e+01 -8.40192e+01
       E  2.44894e+01 -8.32516e+00 -2.66922e+01
       E -1.00851e+01  3.83496e+01  4.78620e+01
3
# CELL(abcABC): 1322.94304  1322.94304  1322.94304    90.00000    90.00000    90.00000  Step:        1300  Bead:      13 positions{angstrom}  cell{angstrom}
       E -2.22930e+01  5.55833e+00 -7.51121e+01
       E  3.02216e+01 -5.53224e-01 -5.82969e+01
       E -9.39809e+00  3.85351e+01  1.71641e+01
3
# CELL(abcABC): 1322.94304  1322.94304  1322.94304    90.00000    90.00000    90.00000  Step:        1400  Bead:      13 positions{angstrom}  cell{angstrom}
       E  2.35974e+01  5.89458e+01 -8.47737e+01
       E  8.97976e+00 -2.36293e+01 -4.90768e+01
       E -1.80258e+01  3.07431e+01  8.54956e+00
3
# CELL(abcABC): 1322.94304  1322.94304  1322.94304    90.00000    90.00000    90.00000  Step:        1500  Bead:      13 positions{angstrom}  cell{angstrom}
       E -1.37602e+01  2.84558e+01 -8.37387e+01
       E -6.06898e+00 -3.91338e+01 -4.81171e+01
       E -3.43424e+01  2.14331e+01  3.37418e+01
3
# CELL(abcABC): 1322.94304  1322.94304  1322.94304    90.00000    90.00000    90.00000  Step:        1600  Bead:      13 positions{angstrom}  cell{angstrom}
       E  2.30609e+01  5.38569e+01 -4.77607e+01
       E -7.52384e+00  2.44113e+01 -1.26485e+01
       E -5.09036e+01  5.60022e+01  3.69677e+01
3
# CELL(abcABC): 1322.94304  1322.94304  1322.94304    90.00000    90.00000    90.00000  Step:        1700  Bead:      13 positions{angstrom}  cell{angstrom}
       E  3.22655e+00  2.73146e+00  1.61758e+01
       E -2.77827e-01  5.62670e+01 -8.24185e+00
       E -5.50680e+01  5.43576e+01  2.82258e+01
3
# CELL(abcABC): 1322.94304  1322.94304  1322.94304    90.00000    90.00000    90.00000  Step:        1800  Bead:      13 positions{angstrom}  cell{angstrom}
       E  1.48367e+01  3.14067e+01  3.59142e+01
       E -4.74210e+01  4.72944e+01  1.74391e+01
       E -8.06001e+01  6.45980e+01  4.23164e+01
3
# CELL(abcABC): 1322.94304  1322.94304  1322.94304    90.00000    90.00000    90.00000  Step:        1900  Bead:      13 positions{angstrom}  cell{angstrom}
       E  1.40430e+00  1.47426e+01  5.17432e+01
       E -8.25541e+01  5.87880e+01  3.64114e+01
       E -6.51829e+01  5.57731e+01  4.97281e+01
3
# CELL(abcABC): 1322.94304  1322.94304  1322.94304    90.00000    90.00000    90.00000  Step:        2000  Bead:      13 positions{angstrom}  cell{angstrom}
       E -2.89370e+01 -1.91368e+01  4.04082e+01
       E -4.95550e+01  5.57310e+01  4.82086e+00
       E -8.03467e+01  9.00649e+01  3.19866e+01
3
# CELL(abcABC): 1322.94304  1322.94304  1322.94304    90.00000    90.00000    90.00000  Step:        2100  Bead:      13 positions{angstrom}  cell{angstrom}
       E -3.49081e+01 -4.72297e+01  5.78693e+01
       E -3.44133e+01  2.37963e+01 -1.59983e+01
       E -8.51421e+01  6.77527e+01  3.99483e+01
3
# CELL(abcABC): 1322.94304  1322.94304  1322.94304    90.00000    90.00000    90.00000  Step:        2200  Bead:      13 positions{angstrom}  cell{angstrom}
       E -6.14668e+01 -2.20595e+01  6.00433e+01
       E -7.31592e+00 -2.96154e+01 -4.41690e+01
       E -4.33371e+01  5.46685e+01  1.96245e+01
3
# CELL(abcABC): 1322.94304  1322.94304  1322.94304    90.00000    90.00000    90.00000  Step:        2300  Bead:      13 positions{angstrom}  cell{angstrom}
       E -3.17921e+01 -2.48175e+01  4.46836e+01
       E -1.43166e+01 -2.26983e+01 -8.82109e+00
       E -1.96341e+01  1.08057e+01  2.47190e+01
3
# CELL(abcABC): 1322.94304  1322.94304  1322.94304    90.00000    90.00000    90.00000  Step:        2400  Bead:      13 positions{angstrom}  cell{angstrom}
       E -4.07696e+01 -1.93366e+01  2.56376e+01
       E  7.06285e+00 -1.46790e+01  3.04225e+00
       E  6.47239e+00 -9.96808e+00  4.09550e+01
3
# CELL(abcABC): 1322.94304  1322.94304  1322.94304    90.00000    90.00000    90.00000  Step:        2500  Bead:      13 positions{angstrom}  cell{angstrom}
       E -3.08171e+01  1.37966e+01  2.96767e+01
       E -1.08109e+00 -3.77153e+01 -5.09156e+01
       E  3.12167e+01 -3.85520e+01  1.71159e+01
3
# CELL(abcABC): 1322.94304  1322.94304  1322.94304    90.00000    90.00000    90.00000  Step:        2600  Bead:      13 positions{angstrom}  cell{angstrom}
       E -1.67086e+01  8.99798e+00  4.42433e+01
       E -4.04652e+01 -4.69626e+01 -4.40489e+01
       E  8.22160e+00 -1.20851e+01  1.66312e+01
3
# CELL(abcABC): 1322.94304  1322.94304  1322.94304    90.00000    90.00000    90.00000  Step:        2700  Bead:      13 positions{angstrom}  cell{angstrom}
       E -1.22276e+01  2.09870e+01  3.27370e+01
       E -4.96588e+01 -4.71119e+01 -3.19726e+01
       E  1.45946e+00 -1.67610e+01  4.47011e+01
3
# CELL(abcABC): 1322.94304  1322.94304  1322.94304    90.00000    90.00000    90.00000  Step:        2800  Bead:      13 positions{angstrom}  cell{angstrom}
       E -4.22459e+01 -2.84667e+01  3.46959e+00
       E -5.54984e+01 -5.51539e+01  7.46679e-01
       E  3.06879e+01  9.16838e+00  6.47680e+01
3
# CELL(abcABC): 1322.94304  1322.94304  1322.94304    90.00000    90.00000    90.00000  Step:        2900  Bead:      13 positions{angstrom}  cell{angstrom}
       E -2.71138e+01 -2.05693e+01  5.59821e+00
       E -6.05396e+01 -8.54946e+01 -2.03030e+01
       E -2.25324e+00 -6.04654e+00  4.72452e+01
3
# CELL(abcABC): 1322.94304  1322.94304  1322.94304    90.00000    90.00000    90.00000  Step:        3000  Bead:      13 positions{angstrom}  cell{angstrom}
       E -2.56907e+01 -1.66758e+01  1.29991e+01
       E -5.05266e+01 -7.21439e+01 -2.50984e+00
       E -5.61474e+00  5.81762e+00  1.30272e+01
3
# CELL(abcABC): 1322.94304  1322.94304  1322.94304    90.00000    90.00000    90.00000  Step:        3100  Bead:      13 positions{angstrom}  cell{angstrom}
       E -3.55855e+00 -1.25609e+01  3.69821e+01
       E -6.69655e+01 -5.10224e+01  4.55172e+01
       E -3.17444e-01  3.82725e+01  3.52450e+01
3
# CELL(abcABC): 1322.94304  1322.94304  1322.94304    90.00000    90.00000    90.00000  Step:        3200  Bead:      13 positions{angstrom}  cell{angstrom}
       E  1.15587e+01 -2.38605e+01  2.58688e+01
       E -9.58795e+01 -3.93678e+01  4.46146e+01
       E  1.08199e+01  7.63901e+01  5.30570e+01
3
# CELL(abcABC): 1322.94304  1322.94304  1322.94304    90.00000    90.00000    90.00000  Step:        3300  Bead:      13 positions{angstrom}  cell{angstrom}
       E  4.95403e+00 -1.70190e+01 -1.80280e+01
       E -7.96680e+01 -3.33604e+01  6.17220e+01
       E -4.37519e+01  6.92133e+01  4.98809e+01
3
# CELL(abcABC): 1322.94304  1322.94304  1322.94304    90.00000    90.00000    90.00000  Step:        3400  Bead:      13 positions{angstrom}  cell{angstrom}
       E  1.67825e+01  1.88211e+01  2.00974e+01
       E -7.92355e+01 -2.77233e+01  7.19837e+01
       E -5.81942e+01  3.83415e+01  4.38488e+01
3
# CELL(abcABC): 1322.94304  1322.94304  1322.94304    90.00000    90.00000    90.00000  Step:        3500  Bead:      13 positions{angstrom}  cell{angstrom}
       E -1.13704e+01  3.86212e+01  3.70385e+01
       E -4.21851e+01 -1.54894e+01  4.61498e+01
       E -4.42341e+01  3.75805e+01  5.78708e+01
3
# CELL(abcABC): 1322.94304  1322.94304  1322.94304    90.00000    90.00000    90.00000  Step:        3600  Bead:      13 positions{angstrom}  cell{angstrom}
       E -7.39038e+00  2.35138e+01  2.42097e+01
       E -3.06919e+01 -1.54634e+01 -3.12712e+00
       E  1.30653e+01  3.76856e+01  3.33031e+01
3
# CELL(abcABC): 1322.94304  1322.94304  1322.94304    90.00000    90.00000    90.00000  Step:        3700  Bead:      13 positions{angstrom}  cell{angstrom}
       E -3.57474e+01  1.82487e+01 -1.60777e+01
       E -2.43876e+01 -3.39442e+01  1.87900e+01
       E -4.11310e+01  1.27394e+00 -5.09430e+00
3
# CELL(abcABC): 1322.94304  1322.94304  1322.94304    90.00000    90.00000    90.00000  Step:        3800  Bead:      13 positions{angstrom}  cell{angstrom}
       E -6.70853e+01 -1.65883e+01 -1.90867e+01
       E -9.20954e+00 -3.88108e+01 -2.12979e+01
       E -5.39140e+01  1.03043e+01 -1.37172e+01
3
# CELL(abcABC): 1322.94304  1322.94304  1322.94304    90.00000    90.00000    90.00000  Step:        3900  Bead:      13 positions{angstrom}  cell{angstrom}
       E -9.32944e+01  8.06429e-01 -2.92652e+01
       E -1.90612e+01 -5.94437e+00 -1.13865e+01
       E -3.88828e+01  2.44175e+01 -1.41055e+01
3
# CELL(abcABC): 1322.94304  1322.94304  1322.94304    90.00000    90.00000    90.00000  Step:        4000  Bead:      13 positions{angstrom}  cell{angstrom}
       E -7.20463e+01  5.94127e+01 -6.44288e+01
       E -3.45009e+01  2.76207e+00  2.37365e+01
       E -4.77044e+01  2.97423e+01  1.40990e+01
3
# CELL(abcABC): 1322.94304  1322.94304  1322.94304    90.00000    90.00000    90.00000  Step:        4100  Bead:      13 positions{angstrom}  cell{angstrom}
       E -5.67367e+01  4.47499e+01 -6.02463e+01
       E -3.76202e+01  3.19379e+01  4.50500e+01
       E -3.70466e+01  3.84163e+00  3.74639e+01
3
# CELL(abcABC): 1322.94304  1322.94304  1322.94304    90.00000    90.00000    90.00000  Step:        4200  Bead:      13 positions{angstrom}  cell{angstrom}
       E -3.04776e+01  4.87758e+01 -5.80777e+01
       E -3.91164e+01  3.15996e+01  5.97011e+01
       E -2.50263e+00  2.27399e+01  5.03125e+01
3
# CELL(abcABC): 1322.94304  1322.94304  1322.94304    90.00000    90.00000    90.00000  Step:        4300  Bead:      13 positions{angstrom}  cell{angstrom}
       E -6.66733e+01  2.25580e+01 -7.25872e+01
       E -3.97947e+01  1.94530e+01  7.14923e+01
       E -6.75680e+00  4.31753e+01  4.68296e+01
3
# CELL(abcABC): 1322.94304  1322.94304  1322.94304    90.00000    90.00000    90.00000  Step:        4400  Bead:      13 positions{angstrom}  cell{angstrom}
       E -5.15969e+01  2.06657e+00 -5.81666e+01
       E -3.76596e+01  6.65025e+01  1.93859e+01
       E -5.12587e+01  7.60422e+00 -2.39368e+01
3
# CELL(abcABC): 1322.94304  1322.94304  1322.94304    90.00000    90.00000    90.00000  Step:        4500  Bead:      13 positions{angstrom}  cell{angstrom}
       E -4.53761e+01  8.01682e+00 -7.94214e+01
       E -7.28236e+01  7.15791e+01  1.40573e+01
       E -1.24270e+01 -2.50652e+01  4.76191e+01
3
# CELL(abcABC): 1322.94304  1322.94304  1322.94304    90.00000    90.00000    90.00000  Step:        4600  Bead:      13 positions{angstrom}  cell{angstrom}
       E  1.47428e+01 -9.83895e-01 -8.11699e+01
       E -6.93102e+01  5.49457e+01 -6.09270e+00
       E  5.80785e+00 -3.58736e+01  2.17695e+01
3
# CELL(abcABC): 1322.94304  1322.94304  1322.94304    90.00000    90.00000    90.00000  Step:        4700  Bead:      13 positions{angstrom}  cell{angstrom}
       E  3.16295e+01  2.96411e+01 -6.55887e+01
       E -6.73509e+01  3.32316e+01 -8.87888e+00
       E  4.90978e+01 -2.17453e+01  1.77232e+01
3
# CELL(abcABC): 1322.94304  1322.94304  1322.94304    90.00000    90.00000    90.00000  Step:        4800  Bead:      13 positions{angstrom}  cell{angstrom}
       E  1.30935e+01  3.94579e+01 -3.06512e+01
       E -5.05082e+01  4.44408e+01 -2.21793e+01
       E  5.66107e+01  1.09328e+00 -1.57366e+01
3
# CELL(abcABC): 1322.94304  1322.94304  1322.94304    90.00000    90.00000    90.00000  Step:        4900  Bead:      13 positions{angstrom}  cell{angstrom}
       E  1.47652e+01  2.88466e+01  1.18133e+01
       E -2.48149e+01 -1.53469e+01 -2.15509e+01
       E  2.26033e+01  1.46777e+00 -5.14431e+00
3
# CELL(abcABC): 1322.94304  1322.94304  1322.94304    90.00000    90.00000    90.00000  Step:        5000  Bead:      13 positions{angstrom}  cell{angstrom}
       E  8.67418e+00 -1.37926e+00 -1.82331e+01
       E -3.45204e+01 -6.15768e+00 -2.78789e+01
       E  1.31063e+01 -3.08188e+01 -1.91435e+01
3
# CELL(abcABC): 1322.94304  1322.94304  1322.94304    90.00000    90.00000    90.00000  Step:        5100  Bead:      13 positions{angstrom}  cell{angstrom}
       E -1.25702e+01  3.14394e+00 -1.41513e+01
       E -2.50907e+01  1.02321e+01 -1.80258e+01
       E -4.21356e+00 -3.01115e+01 -1.73097e+01
3
# CELL(abcABC): 1322.94304  1322.94304  1322.94304    90.00000    90.00000    90.00000  Step:        5200  Bead:      13 positions{angstrom}  cell{angstrom}
       E  2.52721e+01  2.88746e+01  4.40977e+01
       E -1.32274e+01  3.07643e+01 -2.55786e+01
       E -1.06870e+01  5.03629e+00  5.16046e+00
3
# CELL(abcABC): 1322.94304  1322.94304  1322.94304    90.00000    90.00000    90.00000  Step:        5300  Bead:      13 positions{angstrom}  cell{angstrom}
       E  7.32128e-01  3.57013e+01  4.95107e+01
       E -3.68678e+01  1.18176e+01 -3.55425e+01
       E -3.73769e+00  2.92399e+01  2.60680e+01
3
# CELL(abcABC): 1322.94304  1322.94304  1322.94304    90.00000    90.00000    90.00000  Step:        5400  Bead:      13 positions{angstrom}  cell{angstrom}
       E  1.43186e+01  2.55203e+01  5.18328e+01
       E -1.27492e+01  6.50797e+00 -3.32494e+01
       E -1.13114e+01  2.92472e+01  5.10408e+01
3
# CELL(abcABC): 1322.94304  1322.94304  1322.94304    90.00000    90.00000    90.00000  Step:        5500  Bead:      13 positions{angstrom}  cell{angstrom}
       E  2.60618e+01  2.71054e+01  5.32059e+01
       E -3.43950e+01 -1.24263e+01  2.72864e+00
       E -1.92668e+01 -5.33656e+00  4.11753e+01
3
# CELL(abcABC): 1322.94304  1322.94304  1322.94304    90.00000    90.00000    90.00000  Step:        5600  Bead:      13 positions{angstrom}  cell{angstrom}
       E -3.01272e+01  1.04476e+01  1.72393e+01
       E -2.69970e+01  1.86653e+00 -2.18665e+01
       E -3.27093e+01  2.73533e+00  1.68409e+01
3
# CELL(abcABC): 1322.94304  1322.94304  1322.94304    90.00000    90.00000    90.00000  Step:        5700  Bead:      13 positions{angstrom}  cell{angstrom}
       E  1.15595e+01 -1.33477e+00  1.45219e+01
       E -4.00342e+01  5.47856e+01 -1.07782e+01
       E -3.03098e+01  1.82021e+01  2.07400e+01
3
# CELL(abcABC): 1322.94304  1322.94304  1322.94304    90.00000    90.00000    90.00000  Step:        5800  Bead:      13 positions{angstrom}  cell{angstrom}
       E -9.65811e+00 -9.69979e-01 -2.10879e+01
       E -6.40899e+01  3.85840e+01 -1.46110e+01
       E -1.52655e+01  3.26632e+01  1.18792e+01
3
# CELL(abcABC): 1322.94304  1322.94304  1322.94304    90.00000    90.00000    90.00000  Step:        5900  Bead:      13 positions{angstrom}  cell{angstrom}
       E  2.41260e+01  6.29517e+00 -6.99675e+00
       E -4.89812e+00  6.48314e+00  7.24300e+00
       E  1.34503e+01 -1.47644e+01 -6.22119e+00
3
# CELL(abcABC): 1322.94304  1322.94304  1322.94304    90.00000    90.00000    90.00000  Step:        6000  Bead:      13 positions{angstrom}  cell{angstrom}
       E  1.92377e+01  5.38148e+00  3.10876e-01
       E -1.77904e+00 -1.19982e+01  2.19955e+01
       E -9.69025e+00 -2.65707e-01 -2.08387e+00
3
# CELL(abcABC): 1322.94304  1322.94304  1322.94304    90.00000    90.00000    90.00000  Step:        6100  Bead:      13 positions{angstrom}  cell{angstrom}
       E -1.13771e+01 -5.69478e+01 -4.13993e+01
       E  1.44430e+01  2.39591e+01  3.26860e+01
       E -3.59268e+01  1.14541e+01  4.28648e+00
3
# CELL(abcABC): 1322.94304  1322.94304  1322.94304    90.00000    90.00000    90.00000  Step:        6200  Bead:      13 positions{angstrom}  cell{angstrom}
       E  1.56316e+01  2.56267e+00 -6.22361e+01
       E  6.71401e+01  3.82228e+01  6.89649e+00
       E  7.36919e+00  7.93750e+00  2.58335e+00
3
# CELL(abcABC): 1322.94304  1322.94304  1322.94304    90.00000    90.00000    90.00000  Step:        6300  Bead:      13 positions{angstrom}  cell{angstrom}
       E  7.47859e+00 -4.80598e+01 -1.02849e+02
       E  1.00598e+02 -2.75808e+00 -1.52924e+01
       E -2.59270e+00 -9.78450e+00 -2.58383e+01
3
# CELL(abcABC): 1322.94304  1322.94304  1322.94304    90.00000    90.00000    90.00000  Step:        6400  Bead:      13 positions{angstrom}  cell{angstrom}
       E  1.46889e+01 -7.77389e+01 -9.64780e+01
       E  6.60177e+01  1.11242e+01 -1.88248e+01
       E  9.45605e+00  1.02266e+01 -2.04445e+00
3
# CELL(abcABC): 1322.94304  1322.94304  1322.94304    90.00000    90.00000    90.00000  Step:        6500  Bead:      13 positions{angstrom}  cell{angstrom}
       E -1.46150e+01 -7.36913e+01 -9.84935e+01
       E  1.72871e+01 -1.35267e+01 -5.76776e-02
       E  7.44751e+00 -2.37050e+01 -4.65642e+00
3
# CELL(abcABC): 1322.94304  1322.94304  1322.94304    90.00000    90.00000    90.00000  Step:        6600  Bead:      13 positions{angstrom}  cell{angstrom}
       E -2.44731e+01 -5.90585e+01 -1.05526e+02
       E  1.77720e+01 -2.85123e+01 -2.92829e+01
       E  2.17076e+01 -4.88674e+01  2.93108e+01
3
# CELL(abcABC): 1322.94304  1322.94304  1322.94304    90.00000    90.00000    90.00000  Step:        6700  Bead:      13 positions{angstrom}  cell{angstrom}
       E -1.98716e+01 -6.88428e+01 -7.15144e+01
       E  1.19122e+01 -1.15251e+00  3.35899e+00
       E -1.39475e+00  2.01412e-01 -9.93131e+00
3
# CELL(abcABC): 1322.94304  1322.94304  1322.94304    90.00000    90.00000    90.00000  Step:        6800  Bead:      13 positions{angstrom}  cell{angstrom}
       E -9.54026e+00 -1.01029e+02 -5.87114e+01
       E  5.39359e+01 -1.80895e+01 -4.18264e+00
       E  2.98839e+01  2.57016e+01  3.10202e+00
3
# CELL(abcABC): 1322.94304  1322.94304  1322.94304    90.00000    90.00000    90.00000  Step:        6900  Bead:      13 positions{angstrom}  cell{angstrom}
       E  2.38375e+00 -5.68622e+01 -6.51492e+01
       E  2.35144e+01 -2.08751e+01 -1.12002e+01
       E -2.63320e+01  4.61286e+01 -5.44087e+00
3
# CELL(abcABC): 1322.94304  1322.94304  1322.94304    90.00000    90.00000    90.00000  Step:        7000  Bead:      13 positions{angstrom}  cell{angstrom}
       E  1.17269e+01 -6.74819e+01 -3.94436e+01
       E  4.11993e+00 -2.94429e+01  3.77169e+01
       E -1.18842e+01  1.53477e+01  2.53306e+01
3
# CELL(abcABC): 1322.94304  1322.94304  1322.94304    90.00000    90.00000    90.00000  Step:        7100  Bead:      13 positions{angstrom}  cell{angstrom}
       E  2.15594e+01 -6.49999e+01 -2.87394e+01
       E -3.20501e+01 -6.59918e+00  2.61219e+01
       E  3.22406e+01  6.47908e+01  4.72441e+00
3
# CELL(abcABC): 1322.94304  1322.94304  1322.94304    90.00000    90.00000    90.00000  Step:        7200  Bead:      13 positions{angstrom}  cell{angstrom}
       E  4.69616e+01 -4.03433e+01 -1.97959e+01
       E -4.33987e+01  1.13119e+01  2.78479e+01
       E  4.00026e+01  3.29208e+01 -2.10114e+00
3
# CELL(abcABC): 1322.94304  1322.94304  1322.94304    90.00000    90.00000    90.00000  Step:        7300  Bead:      13 positions{angstrom}  cell{angstrom}
       E  9.51411e+00 -3.94833e+01 -2.16135e+01
       E -1.85708e+01  5.01521e+01  3.34566e+01
       E  3.50281e+01 -2.43570e+00 -1.57076e+01
3
# CELL(abcABC): 1322.94304  1322.94304  1322.94304    90.00000    90.00000    90.00000  Step:        7400  Bead:      13 positions{angstrom}  cell{angstrom}
       E  2.44105e+01 -4.12470e+01 -8.41320e+01
       E -5.20444e+01  4.25384e+01  5.61547e+00
       E  5.22056e+01  3.63866e+01 -3.89546e+01
3
# CELL(abcABC): 1322.94304  1322.94304  1322.94304    90.00000    90.00000    90.00000  Step:        7500  Bead:      13 positions{angstrom}  cell{angstrom}
       E  1.06271e+01 -6.73901e+01 -4.43552e+01
       E -3.06907e+01  5.47912e+00 -4.26755e+00
       E  5.46308e+01  2.00685e+01  4.07334e-01
3
# CELL(abcABC): 1322.94304  1322.94304  1322.94304    90.00000    90.00000    90.00000  Step:        7600  Bead:      13 positions{angstrom}  cell{angstrom}
       E  3.28275e+01 -5.80844e+01 -2.22788e+01
       E -6.14650e+00 -2.81954e+01 -2.20205e+01
       E  3.59904e+01  3.41690e+01  1.01944e+00
3
# CELL(abcABC): 1322.94304  1322.94304  1322.94304    90.00000    90.00000    90.00000  Step:        7700  Bead:      13 positions{angstrom}  cell{angstrom}
       E  2.04460e+01 -6.71768e+01 -3.53885e+00
       E -2.06975e+01 -4.80611e+01 -5.97542e+01
       E  3.47732e+01  4.61489e+01 -3.19419e+01
3
# CELL(abcABC): 1322.94304  1322.94304  1322.94304    90.00000    90.00000    90.00000  Step:        7800  Bead:      13 positions{angstrom}  cell{angstrom}
       E  8.34146e+00 -5.71713e+01 -4.32994e+01
       E -3.46099e+00 -5.04705e+01 -5.00200e+01
       E  3.37380e+01  2.26217e+01 -5.21888e+01
3
# CELL(abcABC): 1322.94304  1322.94304  1322.94304    90.00000    90.00000    90.00000  Step:        7900  Bead:      13 positions{angstrom}  cell{angstrom}
       E  1.98986e+01 -3.65396e+01 -3.27596e+01
       E  6.41107e+00 -2.54201e+01 -2.02879e+01
       E  8.25553e+00  3.28228e+01 -4.25224e+01
3
# CELL(abcABC): 1322.94304  1322.94304  1322.94304    90.00000    90.00000    90.00000  Step:        8000  Bead:      13 positions{angstrom}  cell{angstrom}
       E  3.52112e+01 -3.35011e+01 -3.81714e+01
       E -1.10476e+01  6.11222e+00 -2.27117e+01
       E  2.60867e+01  1.73520e+01 -4.28879e+01
3
# CELL(abcABC): 1322.94304  1322.94304  1322.94304    90.00000    90.00000    90.00000  Step:        8100  Bead:      13 positions{angstrom}  cell{angstrom}
       E  1.98170e+01  1.35675e+01 -5.61313e+01
       E  5.87212e+00  1.41150e+01 -1.92677e+00
       E  5.29714e+00  1.75241e+01 -1.06278e+01
3
# CELL(abcABC): 1322.94304  1322.94304  1322.94304    90.00000    90.00000    90.00000  Step:        8200  Bead:      13 positions{angstrom}  cell{angstrom}
       E  3.34060e+01  5.77850e+01 -4.91640e+01
       E -2.73458e+01  6.20940e+00 -2.56939e+01
       E -1.92675e+00  5.27983e+00  1.60311e+01
3
# CELL(abcABC): 1322.94304  1322.94304  1322.94304    90.00000    90.00000    90.00000  Step:        8300  Bead:      13 positions{angstrom}  cell{angstrom}
       E  3.47112e+01  4.01005e+01 -4.24283e+01
       E -1.63071e+01  4.91781e+01  9.28719e+00
       E  1.48581e+01 -4.50894e+01  6.64897e+01
3
# CELL(abcABC): 1322.94304  1322.94304  1322.94304    90.00000    90.00000    90.00000  Step:        8400  Bead:      13 positions{angstrom}  cell{angstrom}
       E -1.01929e+01 -8.35128e-01 -2.20105e+01
       E  2.49870e+00  5.13576e+01 -4.55472e+01
       E  2.18619e+01 -3.36477e+01  6.24291e+01
3
# CELL(abcABC): 1322.94304  1322.94304  1322.94304    90.00000    90.00000    90.00000  Step:        8500  Bead:      13 positions{angstrom}  cell{angstrom}
       E -1.66002e+01 -9.21001e+00 -1.61618e+01
       E  3.68936e+01  3.39901e+01 -2.54171e+01
       E  2.60515e+01 -3.22351e+01  3.40342e+01
3
# CELL(abcABC): 1322.94304  1322.94304  1322.94304    90.00000    90.00000    90.00000  Step:        8600  Bead:      13 positions{angstrom}  cell{angstrom}
       E -2.93782e+01 -1.68027e+01 -2.58972e+00
       E -3.26645e+00  1.41909e+01 -5.07107e+01
       E  2.15891e+00 -1.82831e+01  2.03111e+01
3
# CELL(abcABC): 1322.94304  1322.94304  1322.94304    90.00000    90.00000    90.00000  Step:        8700  Bead:      13 positions{angstrom}  cell{angstrom}
       E -3.75675e+01  4.99973e+00 -3.15151e+01
       E -1.01335e+01  2.99583e+01 -4.57883e+01
       E  7.11065e+00 -3.83648e+01  6.32468e+01
3
# CELL(abcABC): 1322.94304  1322.94304  1322.94304    90.00000    90.00000    90.00000  Step:        8800  Bead:      13 positions{angstrom}  cell{angstrom}
       E -4.65536e+01  2.26595e+01  2.82909e+01
       E  1.23806e+01 -4.02985e+00  6.98681e+00
       E  2.05903e+01 -7.38857e+01  3.67949e+01
3
# CELL(abcABC): 1322.94304  1322.94304  1322.94304    90.00000    90.00000    90.00000  Step:        8900  Bead:      13 positions{angstrom}  cell{angstrom}
       E -3.08153e+01  4.52777e+01  3.32263e+01
       E -1.09823e+00  1.68065e+00  2.20796e+01
       E  1.39395e+01 -5.81722e+01  5.00792e+01
3
# CELL(abcABC): 1322.94304  1322.94304  1322.94304    90.00000    90.00000    90.00000  Step:        9000  Bead:      13 positions{angstrom}  cell{angstrom}
       E -2.81690e+01  3.40717e+01  5.72919e+00
       E -2.18800e+00 -1.77645e+01  5.42062e+01
       E  5.39728e+01 -2.14308e+01  2.30520e+01
3
# CELL(abcABC): 1322.94304  1322.94304  1322.94304    90.00000    90.00000    90.00000  Step:        9100  Bead:      13 positions{angstrom}  cell{angstrom}
       E  7.12500e+00  3.69233e+01  3.08552e+01
       E -4.27412e+01  1.21863e+01  8.08917e+01
       E  3.07262e+01 -1.25446e+01  4.41803e+01
3
# CELL(abcABC): 1322.94304  1322.94304  1322.94304    90.00000    90.00000    90.00000  Step:        9200  Bead:      13 positions{angstrom}  cell{angstrom}
       E  3.33660e+01  2.90945e+01  1.39972e+01
       E -3.53263e+01  1.67995e+00  4.91087e+01
       E  3.19082e+01 -5.69365e+01 -8.92049e+00
3
# CELL(abcABC): 1322.94304  1322.94304  1322.94304    90.00000    90.00000    90.00000  Step:        9300  Bead:      13 positions{angstrom}  cell{angstrom}
       E  1.02929e+01  2.12394e+01 -7.21069e+00
       E -3.77023e+01 -6.54559e+00  6.74645e+00
       E  4.30317e+00 -5.38361e+01  4.69123e+00
3
# CELL(abcABC): 1322.94304  1322.94304  1322.94304    90.00000    90.00000    90.00000  Step:        9400  Bead:      13 positions{angstrom}  cell{angstrom}
       E  3.48230e+01  8.74764e+01 -2.64864e+01
       E -2.73531e+01 -4.38184e+01  1.26835e+01
       E  4.95624e+01 -5.23581e+01 -2.41004e+01
3
# CELL(abcABC): 1322.94304  1322.94304  1322.94304    90.00000    90.00000    90.00000  Step:        9500  Bead:      13 positions{angstrom}  cell{angstrom}
       E -6.52551e+00  6.13780e+01 -5.42263e+01
       E -7.18645e+00 -5.52027e+01  2.44397e+01
       E  2.61999e+01 -9.43361e+00  1.19475e+01
3
# CELL(abcABC): 1322.94304  1322.94304  1322.94304    90.00000    90.00000    90.00000  Step:        9600  Bead:      13 positions{angstrom}  cell{angstrom}
       E  1.85725e+01  3.76115e+01 -2.92596e+01
       E  3.93502e+01 -3.59740e+01  3.14710e+01
       E  3.24663e+01 -1.81356e+01  1.58432e+01
3
# CELL(abcABC): 1322.94304  1322.94304  1322.94304    90.00000    90.00000    90.00000  Step:        9700  Bead:      13 positions{angstrom}  cell{angstrom}
       E  3.66867e+01 -3.94098e+01 -2.78769e+01
       E  6.81235e+01 -6.73717e+01  9.81777e+00
       E  3.08920e+01 -5.87483e+00  1.56454e+01
3
# CELL(abcABC): 1322.94304  1322.94304  1322.94304    90.00000    90.00000    90.00000  Step:        9800  Bead:      13 positions{angstrom}  cell{angstrom}
       E -6.27601e-01 -6.34260e+01 -5.49926e+01
       E  5.34898e+01 -7.19911e+01 -1.56471e+01
       E  2.35597e+01 -1.00364e+01  1.44443e+01
3