3
# CELL(abcABC): 1322.94304  1322.94304  1322.94304    90.00000    90.00000    90.00000  Step:           0  Bead:      26 positions{angstrom}  cell{angstrom}
       E  0.00000e+00  0.00000e+00  0.00000e+00
       E  0.00000e+00  0.00000e+00  0.00000e+00
       E  0.00000e+00  0.00000e+00  0.00000e+00
3
# CELL(abcABC): 1322.94304  1322.94304  1322.94304    90.00000    90.00000    90.00000  Step:         100  Bead:      26 positions{angstrom}  cell{angstrom}
       E  4.51579e+01  5.00091e+00  9.28092e+00
       E -6.94908e-01 -5.73773e+01  1.47184e+01
       E -2.16596e+01 -1.46859e+01 -1.44132e+01
3
# CELL(abcABC): 1322.94304  1322.94304  1322.94304    90.00000    90.00000    90.00000  Step:         200  Bead:      26 positions{angstrom}  cell{angstrom}
       E -2.51352e+00  1.00060e+00  4.07674e+01
       E -1.05072e+01 -3.92143e+01  2.60477e+01
       E  9.26161e+00 -1.41181e+00 -2.06737e+00
3
# CELL(abcABC): 1322.94304  1322.94304  1322.94304    90.00000    90.00000    90.00000  Step:         300  Bead:      26 positions{angstrom}  cell{angstrom}
       E  9.53712e+00  2.09341e+01  2.62916e+01
       E  1.97283e+00 -3.53236e+01 -1.32885e+01
       E  2.37269e+01 -6.27898e+00  1.72291e+00
3
# CELL(abcABC): 1322.94304  1322.94304  1322.94304    90.00000    90.00000    90.00000  Step:         400  Bead:      26 positions{angstrom}  cell{angstrom}
       E  6.82582e+00  3.68488e+01  5.13768e+00
       E -4.42633e+00 -3.40513e+01 -3.64965e+00
       E  4.10650e+01 -4.32878e+00 -4.17243e+01
3
# CELL(abcABC): 1322.94304  1322.94304  1322.94304    90.00000    90.00000    90.00000  Step:         500  Bead:      26 positions{angstrom}  cell{angstrom}
       E  2.27103e+01 -1.43870e+01 -1.11567e+01
       E  9.72642e+00 -6.75979e+00 -1.07526e+00
       E  4.11667e+01 -1.00808e+01 -2.74703e+00
3
# CELL(abcABC): 1322.94304  1322.94304  1322.94304    90.00000    90.00000    90.00000  Step:         600  Bead:      26 positions{angstrom}  cell{angstrom}
       E  2.73996e+01 -7.44114e+00  1.46143e+01
       E -2.75813e+00 -6.73724e+00  3.25307e+01
       E  3.40608e+01  2.04780e+01  2.40113e+01
3
# CELL(abcABC): 1322.94304  1322.94304  1322.94304    90.00000    90.00000    90.00000  Step:         700  Bead:      26 positions{angstrom}  cell{angstrom}
       E  1.90186e+01  7.89039e+00  1.78683e+01
       E -8.44456e+00 -2.47269e+01  3.68503e+01
       E -2.65363e+01  1.33516e+01  3.25623e+01
3
# CELL(abcABC): 1322.94304  1322.94304  1322.94304    90.00000    90.00000    90.00000  Step:         800  Bead:      26 positions{angstrom}  cell{angstrom}
       E  4.46875e+01  1.42793e+01  1.83692e+01
       E  3.15701e+01 -9.35909e+00  4.03581e+01
       E -3.25888e+01  2.09234e+01  3.40687e+01
3
# CELL(abcABC): 1322.94304  1322.94304  1322.94304    90.00000    90.00000    90.00000  Step:         900  Bead:      26 positions{angstrom}  cell{angstrom}
       E  1.48027e+01  1.29126e+01 -5.56963e-01
       E -2.35627e+01 -3.98070e+00  1.00925e+01
       E -3.16849e+01  5.40649e+00  8.99657e+01
3
# CELL(abcABC): 1322.94304  1322.94304  1322.94304    90.00000    90.00000    90.00000  Step:        1000  Bead:      26 positions{angstrom}  cell{angstrom}
       E  1.10775e+01  5.23061e+01  7.71690e-01
       E -1.97402e+00  1.28275e+01 -1.33641e+01
       E -1.06187e+01  1.13133e+01  6.22522e+01
3
# CELL(abcABC): 1322.94304  1322.94304  1322.94304    90.00000    90.00000    90.00000  Step:        1100  Bead:      26 positions{angstrom}  cell{angstrom}
       E  6.10990e+00  3.16429e+00 -9.49257e+00
       E  8.79925e+00  1.50013e+01 -3.42791e+01
       E  1.05802e+01  1.05100e+01  2.20175e+01
3
# CELL(abcABC): 1322.94304  1322.94304  1322.94304    90.00000    90.00000    90.00000  Step:        1200  Bead:      26 positions{angstrom}  cell{angstrom}
       E -2.11969e+00 -1.33792e+01 -1.03193e+01
       E  2.70269e+01  5.56199e+00 -4.42701e+01
       E  2.06280e+01  8.60228e+01  2.33125e+01
3
# CELL(abcABC): 1322.94304  1322.94304  1322.94304    90.00000    90.00000    90.00000  Step:        1300  Bead:      26 positions{angstrom}  cell{angstrom}
       E -7.81920e+00  2.43517e+01 -2.63082e+01
       E -6.08580e+00  2.55417e+00 -8.55627e+01
       E -2.08477e+00  5.02624e+01 -1.00488e+01
3
# CELL(abcABC): 1322.94304  1322.94304  1322.94304    90.00000    90.00000    90.00000  Step:        1400  Bead:      26 positions{angstrom}  cell{angstrom}
       E -6.60572e+00  6.96523e+01 -4.27149e+01
       E -8.57869e+00 -2.40610e+01 -4.71322e+01
       E  6.98590e+00  2.81663e+01  1.28445e+01
3
# CELL(abcABC): 1322.94304  1322.94304  1322.94304    90.00000    90.00000    90.00000  Step:        1500  Bead:      26 positions{angstrom}  cell{angstrom}
       E -3.40088e+01  6.19215e+01 -7.07019e+01
       E -3.34757e+01 -1.75481e+00 -5.70169e+01
       E  5.96652e+00  1.74069e+01  3.26193e+01
3
# CELL(abcABC): 1322.94304  1322.94304  1322.94304    90.00000    90.00000    90.00000  Step:        1600  Bead:      26 positions{angstrom}  cell{angstrom}
       E -1.36423e+01  3.71381e+01 -8.06131e+01
       E -2.71039e+01  7.86291e+00  1.94886e+01
       E -2.29634e+01  4.22143e+01 -3.99875e+00
3
# CELL(abcABC): 1322.94304  1322.94304  1322.94304    90.00000    90.00000    90.00000  Step:        1700  Bead:      26 positions{angstrom}  cell{angstrom}
       E -5.68024e+01  3.80590e+01 -6.04584e-01
       E -1.79142e+01  3.50507e+01  3.36656e+01
       E -3.36807e+01  3.60664e+01  9.41254e+00
3
# CELL(abcABC): 1322.94304  1322.94304  1322.94304    90.00000    90.00000    90.00000  Step:        1800  Bead:      26 positions{angstrom}  cell{angstrom}
       E -1.65456e+01  4.27185e+01  3.09060e+01
       E -6.50028e+01  6.27232e+00  4.46871e+00
       E -3.84126e+01  3.76387e+01 -2.45465e-01
3
# CELL(abcABC): 1322.94304  1322.94304  1322.94304    90.00000    90.00000    90.00000  Step:        1900  Bead:      26 positions{angstrom}  cell{angstrom}
       E -1.94148e+01 -5.90112e+00  1.72154e+01
       E -3.20544e+01  2.88620e+01  1.11886e+01
       E -3.70286e+01  4.39149e+01  1.82606e+01
3
# CELL(abcABC): 1322.94304  1322.94304  1322.94304    90.00000    90.00000    90.00000  Step:        2000  Bead:      26 positions{angstrom}  cell{angstrom}
       E -3.73949e+01 -8.35458e+00  5.12151e+01
       E -2.76836e+01  2.55270e+01 -8.32194e+00
       E -8.06756e+01  4.27876e+01 -1.68636e+01
3
# CELL(abcABC): 1322.94304  1322.94304  1322.94304    90.00000    90.00000    90.00000  Step:        2100  Bead:      26 positions{angstrom}  cell{angstrom}
       E -2.38971e+01 -5.56560e+00  2.61320e+01
       E -2.68946e+01  4.07856e+00  2.65095e+01
       E -2.03524e+01  5.22244e+01 -1.24473e+01
3
# CELL(abcABC): 1322.94304  1322.94304  1322.94304    90.00000    90.00000    90.00000  Step:        2200  Bead:      26 positions{angstrom}  cell{angstrom}
       E -3.62413e+01 -1.33021e+01  3.47561e+01
       E -1.45389e+01  1.95647e+01  7.09001e+00
       E  4.73753e+00 -9.93622e+00 -2.42559e+01
3
# CELL(abcABC): 1322.94304  1322.94304  1322.94304    90.00000    90.00000    90.00000  Step:        2300  Bead:      26 positions{angstrom}  cell{angstrom}
       E -5.21757e+01 -1.81522e+01  1.13384e+01
       E -1.90025e+01  1.42637e+01 -4.43060e+00
       E -2.17329e+01 -1.92966e+01 -3.90140e+01
3
# CELL(abcABC): 1322.94304  1322.94304  1322.94304    90.00000    90.00000    90.00000  Step:        2400  Bead:      26 positions{angstrom}  cell{angstrom}
       E -6.12440e+01 -1.41909e+01  2.22415e+01
       E -3.18565e+01 -2.03956e+01 -1.63166e+01
       E  3.81774e+00 -3.64320e+01 -4.75399e+01
3
# CELL(abcABC): 1322.94304  1322.94304  1322.94304    90.00000    90.00000    90.00000  Step:        2500  Bead:      26 positions{angstrom}  cell{angstrom}
       E -6.07477e+01  2.98007e+01  4.72334e+01
       E -2.66862e+01 -6.97439e+01 -4.77305e+01
       E  3.35986e+01 -3.15280e+01  2.29635e+01
3
# CELL(abcABC): 1322.94304  1322.94304  1322.94304    90.00000    90.00000    90.00000  Step:        2600  Bead:      26 positions{angstrom}  cell{angstrom}
       E -7.41390e+01 -1.29191e+01  5.79120e+01
       E -5.28774e+01 -4.81486e+01 -1.39855e+01
       E  4.48925e+01 -2.83512e+01  6.54635e+01
3
# CELL(abcABC): 1322.94304  1322.94304  1322.94304    90.00000    90.00000    90.00000  Step:        2700  Bead:      26 positions{angstrom}  cell{angstrom}
       E -6.76287e+01 -6.16802e+01  6.29186e+01
       E -4.27938e+01 -4.86561e+01 -3.56218e+01
       E  2.06382e+01 -3.45273e+01  8.83884e+01
3
# CELL(abcABC): 1322.94304  1322.94304  1322.94304    90.00000    90.00000    90.00000  Step:        2800  Bead:      26 positions{angstrom}  cell{angstrom}
       E -5.18125e+01 -4.22721e+01  7.14599e+01
       E -5.85309e+01 -4.00605e+01 -9.62263e+00
       E  3.09905e+01 -2.01636e+01  4.76362e+01
3
# CELL(abcABC): 1322.94304  1322.94304  1322.94304    90.00000    90.00000    90.00000  Step:        2900  Bead:      26 positions{angstrom}  cell{angstrom}
       E -6.93223e+01 -6.08744e+01  7.09076e+01
       E -6.56104e+01 -3.05437e+01 -1.74491e-01
       E  4.63213e+01 -5.34978e+01  5.33925e+01
3
# CELL(abcABC): 1322.94304  1322.94304  1322.94304    90.00000    90.00000    90.00000  Step:        3000  Bead:      26 positions{angstrom}  cell{angstrom}
       E -6.36597e+01 -1.76700e+01  4.86730e+01
       E -7.61255e+01 -8.32026e+01  1.02186e+01
       E  1.50990e+01 -1.31552e+01  7.98395e+00
3
# CELL(abcABC): 1322.94304  1322.94304  1322.94304    90.00000    90.00000    90.00000  Step:        3100  Bead:      26 positions{angstrom}  cell{angstrom}
       E -4.41342e+01 -3.33208e+01  4.12327e+01
       E -7.95505e+01 -6.60534e+01  8.22358e+01
       E  4.06199e+01  5.19417e+01 -1.05537e+01
3
# CELL(abcABC): 1322.94304  1322.94304  1322.94304    90.00000    90.00000    90.00000  Step:        3200  Bead:      26 positions{angstrom}  cell{angstrom}
       E -4.45415e+01 -3.75311e+01  5.03482e+01
       E -5.72737e+01 -3.57146e+01  6.95047e+01
       E  9.97314e+00  3.92452e+01 -4.34666e-01
3
# CELL(abcABC): 1322.94304  1322.94304  1322.94304    90.00000    90.00000    90.00000  Step:        3300  Bead:      26 positions{angstrom}  cell{angstrom}
       E -3.40885e+01  3.82179e+01  5.17788e+01
       E -8.55517e+01  7.46859e+00  6.44470e+01
       E  3.26746e+01  5.40997e+01 -2.15493e+00
3
# CELL(abcABC): 1322.94304  1322.94304  1322.94304    90.00000    90.00000    90.00000  Step:        3400  Bead:      26 positions{angstrom}  cell{angstrom}
       E -8.02045e+01  3.36492e+01  1.03553e+02
       E -4.56032e+01 -2.60270e+01  2.02851e+01
       E -1.44263e+00  6.88262e+01  5.37017e+01
3
# CELL(abcABC): 1322.94304  1322.94304  1322.94304    90.00000    90.00000    90.00000  Step:        3500  Bead:      26 positions{angstrom}  cell{angstrom}
       E -7.58280e+01  2.66599e+01  9.43090e+01
       E -4.75102e+01 -4.57553e+01  3.34549e+01
       E -5.82844e+00  3.58941e+01  2.66868e+01
3
# CELL(abcABC): 1322.94304  1322.94304  1322.94304    90.00000    90.00000    90.00000  Step:        3600  Bead:      26 positions{angstrom}  cell{angstrom}
       E -8.73739e+01 -3.23010e+01  3.62563e+01
       E -7.14499e+00 -2.03267e+01  7.27613e+01
       E -8.12504e+01  8.75295e+00  3.77756e+00
3
# CELL(abcABC): 1322.94304  1322.94304  1322.94304    90.00000    90.00000    90.00000  Step:        3700  Bead:      26 positions{angstrom}  cell{angstrom}
       E -1.00219e+02 -1.61418e+01  2.60631e+01
       E  7.27862e+00 -3.91780e+01  1.85001e+01
       E -6.68265e+01 -1.38442e+01  1.34326e+01
3
# CELL(abcABC): 1322.94304  1322.94304  1322.94304    90.00000    90.00000    90.00000  Step:        3800  Bead:      26 positions{angstrom}  cell{angstrom}
       E -6.47807e+01  5.46149e+00  2.26468e+01
       E -8.92605e-01 -5.44690e+01  6.56621e+00
       E -9.49498e+00 -4.07389e+01 -1.58928e+00
3
# CELL(abcABC): 1322.94304  1322.94304  1322.94304    90.00000    90.00000    90.00000  Step:        3900  Bead:      26 positions{angstrom}  cell{angstrom}
       E -5.01199e+01 -4.02933e+00  3.78505e+01
       E -1.16852e+01 -3.79885e+01  3.48551e+01
       E -1.22882e+01 -2.42391e+01  2.97935e+00
3
# CELL(abcABC): 1322.94304  1322.94304  1322.94304    90.00000    90.00000    90.00000  Step:        4000  Bead:      26 positions{angstrom}  cell{angstrom}
       E -5.84119e+01  9.82150e+00 -1.42682e+01
       E -4.26450e+01 -1.92114e+01 -2.42852e-01
       E -3.48754e+01 -8.87980e+00 -4.94883e+01
3
# CELL(abcABC): 1322.94304  1322.94304  1322.94304    90.00000    90.00000    90.00000  Step:        4100  Bead:      26 positions{angstrom}  cell{angstrom}
       E -5.17331e+01 -3.05845e+01 -6.08055e+01
       E -8.62488e+01  8.19777e+00  2.38074e+01
       E -4.41523e+01 -3.24154e+00  4.42940e+00
3
# CELL(abcABC): 1322.94304  1322.94304  1322.94304    90.00000    90.00000    90.00000  Step:        4200  Bead:      26 positions{angstrom}  cell{angstrom}
       E -7.93339e+01 -2.22547e+01 -1.01617e+02
       E -5.62613e+01  1.20435e+01 -3.30809e+01
       E -1.14860e+01  8.00384e+00 -1.05973e+01
3
# CELL(abcABC): 1322.94304  1322.94304  1322.94304    90.00000    90.00000    90.00000  Step:        4300  Bead:      26 positions{angstrom}  cell{angstrom}
       E -3.65652e+01  1.29380e+01 -8.01446e+01
       E -3.45850e+01  6.03962e+01 -3.16651e+01
       E -8.28511e+00  8.21465e-01  1.14588e+01
3
# CELL(abcABC): 1322.94304  1322.94304  1322.94304    90.00000    90.00000    90.00000  Step:        4400  Bead:      26 positions{angstrom}  cell{angstrom}
       E -1.62874e+01  1.62942e+01 -7.08527e+01
       E -5.90126e+01  3.29657e+01 -2.81222e+01
       E  1.57784e+01 -2.60553e+01  1.67443e+01
3
# CELL(abcABC): 1322.94304  1322.94304  1322.94304    90.00000    90.00000    90.00000  Step:        4500  Bead:      26 positions{angstrom}  cell{angstrom}
       E -4.31816e+01 -2.15037e+00 -7.41112e+01
       E -6.19954e+01  4.12617e+01  1.58432e+01
       E  2.33355e+01 -5.11518e+01  1.68882e+01
3
# CELL(abcABC): 1322.94304  1322.94304  1322.94304    90.00000    90.00000    90.00000  Step:        4600  Bead:      26 positions{angstrom}  cell{angstrom}
       E -4.73543e+01  4.87214e+01 -7.57570e+01
       E -5.42219e+01  5.21659e+01  1.02504e+01
       E -5.81128e+00 -4.24517e+01  3.11430e+01
3
# CELL(abcABC): 1322.94304  1322.94304  1322.94304    90.00000    90.00000    90.00000  Step:        4700  Bead:      26 positions{angstrom}  cell{angstrom}
       E -2.70691e+01  5.55847e+01 -1.07360e+02
       E -6.40177e+01  3.18638e+01 -1.88256e+01
       E -3.17185e+01 -6.64041e+01  4.88052e+01
3
# CELL(abcABC): 1322.94304  1322.94304  1322.94304    90.00000    90.00000    90.00000  Step:        4800  Bead:      26 positions{angstrom}  cell{angstrom}
       E -2.46952e+01  5.64448e+01 -1.11679e+02
       E -3.86695e+01  5.74714e+00 -2.42373e+01
       E -4.51858e+00 -4.38835e+01  6.08970e+00
3
# CELL(abcABC): 1322.94304  1322.94304  1322.94304    90.00000    90.00000    90.00000  Step:        4900  Bead:      26 positions{angstrom}  cell{angstrom}
       E  1.19221e+01  6.30191e+01 -4.89491e+01
       E -5.29972e+01 -1.25251e+01 -4.76597e+01
       E -2.34072e+00 -5.83731e+01 -1.12594e+01
3
# CELL(abcABC): 1322.94304  1322.94304  1322.94304    90.00000    90.00000    90.00000  Step:        5000  Bead:      26 positions{angstrom}  cell{angstrom}
       E  9.61857e+01  4.84178e+01  2.79771e+00
       E -3.74772e+01 -1.48564e+01 -4.00593e+01
       E -1.18066e+01 -4.10707e+01 -1.44364e+01
3
# CELL(abcABC): 1322.94304  1322.94304  1322.94304    90.00000    90.00000    90.00000  Step:        5100  Bead:      26 positions{angstrom}  cell{angstrom}
       E  5.56882e+01  4.41507e+01  1.40539e+01
       E -3.10715e+01  1.41705e+01 -5.19507e+00
       E  1.63861e+01  2.25736e+01 -1.64055e+01
3
# CELL(abcABC): 1322.94304  1322.94304  1322.94304    90.00000    90.00000    90.00000  Step:        5200  Bead:      26 positions{angstrom}  cell{angstrom}
       E  3.38801e+01 -3.31295e+00  1.95448e+01
       E -2.79074e+01  1.36210e+01 -1.50585e+01
       E -1.03952e+01  2.22432e+00 -3.03300e+00
3
# CELL(abcABC): 1322.94304  1322.94304  1322.94304    90.00000    90.00000    90.00000  Step:        5300  Bead:      26 positions{angstrom}  cell{angstrom}
       E  2.46547e+01 -3.12641e+01 -2.55021e+01
       E -4.96795e+01  1.46849e+01 -9.11824e+00
       E -5.28615e+01  4.23005e+01  2.90007e+01
3
# CELL(abcABC): 1322.94304  1322.94304  1322.94304    90.00000    90.00000    90.00000  Step:        5400  Bead:      26 positions{angstrom}  cell{angstrom}
       E  3.42917e+01 -3.40728e+00 -1.50820e+01
       E -4.70797e+01  5.03389e+01 -9.27820e+00
       E -3.62272e+01  4.24560e+01  1.55611e+01
3
# CELL(abcABC): 1322.94304  1322.94304  1322.94304    90.00000    90.00000    90.00000  Step:        5500  Bead:      26 positions{angstrom}  cell{angstrom}
       E  1.86497e+01  3.52903e+00 -8.08990e+00
       E -2.00497e+01  1.47359e+01 -7.14810e+00
       E -2.42126e+01  5.08818e+01  8.92032e+00
3
# CELL(abcABC): 1322.94304  1322.94304  1322.94304    90.00000    90.00000    90.00000  Step:        5600  Bead:      26 positions{angstrom}  cell{angstrom}
       E  8.29586e+00  2.29727e+01 -3.17295e+01
       E -8.51947e+00  9.18471e+00  2.48328e+01
       E  1.83136e-01  1.65534e+01  1.34646e+01
3
# CELL(abcABC): 1322.94304  1322.94304  1322.94304    90.00000    90.00000    90.00000  Step:        5700  Bead:      26 positions{angstrom}  cell{angstrom}
       E  9.40624e+00  3.12249e+00 -5.98741e+01
       E -7.53174e+00  4.13092e+00  5.01095e+00
       E -3.13834e+01  2.59897e+00  3.99653e+00
3
# CELL(abcABC): 1322.94304  1322.94304  1322.94304    90.00000    90.00000    90.00000  Step:        5800  Bead:      26 positions{angstrom}  cell{angstrom}
       E  2.87608e+01  1.91129e+01 -1.04282e+01
       E -1.14177e+01 -1.28292e+01 -4.21099e+00
       E -2.20222e+01 -4.38413e+01 -1.21912e+01
3
# CELL(abcABC): 1322.94304  1322.94304  1322.94304    90.00000    90.00000    90.00000  Step:        5900  Bead:      26 positions{angstrom}  cell{angstrom}
       E  1.27566e+00 -4.62452e+00  1.44967e+01
       E  8.44687e+00  9.23987e+00 -1.45067e+01
       E  1.07195e+01 -3.39131e+01  1.17287e+01
3
# CELL(abcABC): 1322.94304  1322.94304  1322.94304    90.00000    90.00000    90.00000  Step:        6000  Bead:      26 positions{angstrom}  cell{angstrom}
       E  4.63601e+00 -4.89986e+01  3.16297e+00
       E  9.61421e+00  1.40719e+01 -6.57426e+01
       E -1.51722e+01 -4.84135e+01  1.64266e+01
3
# CELL(abcABC): 1322.94304  1322.94304  1322.94304    90.00000    90.00000    90.00000  Step:        6100  Bead:      26 positions{angstrom}  cell{angstrom}
       E -4.54351e+00 -5.29227e+01 -4.54535e+01
       E  6.68806e+01 -2.36942e+01 -5.04525e+01
       E  8.45586e+00 -4.33694e+00 -1.32912e+01
3
# CELL(abcABC): 1322.94304  1322.94304  1322.94304    90.00000    90.00000    90.00000  Step:        6200  Bead:      26 positions{angstrom}  cell{angstrom}
       E  9.72801e+00 -3.68125e+01 -7.36869e+01
       E  4.76167e+01  2.08982e+01  2.89268e+01
       E  1.10935e+01 -6.22535e+01  2.18973e+01
3
# CELL(abcABC): 1322.94304  1322.94304  1322.94304    90.00000    90.00000    90.00000  Step:        6300  Bead:      26 positions{angstrom}  cell{angstrom}
       E  2.75974e+01 -5.51811e+01 -9.70492e+01
       E  7.81831e+01 -2.41256e+01 -1.55088e+01
       E -2.40673e+00 -6.60236e+01  1.48041e+00
3
# CELL(abcABC): 1322.94304  1322.94304  1322.94304    90.00000    90.00000    90.00000  Step:        6400  Bead:      26 positions{angstrom}  cell{angstrom}
       E  7.79650e+01 -7.06287e+01 -1.04912e+02
       E  3.82811e+01 -2.63435e+01 -6.51734e+01
       E  1.56869e+01 -3.58795e+01  2.13601e+01
3
# CELL(abcABC): 1322.94304  1322.94304  1322.94304    90.00000    90.00000    90.00000  Step:        6500  Bead:      26 positions{angstrom}  cell{angstrom}
       E  5.85276e+01 -8.47511e+01 -1.21918e+02
       E  1.90530e+00 -4.76710e+00 -6.05741e+01
       E  1.79697e+01 -4.13369e+00 -5.24903e+00
3
# CELL(abcABC): 1322.94304  1322.94304  1322.94304    90.00000    90.00000    90.00000  Step:        6600  Bead:      26 positions{angstrom}  cell{angstrom}
       E  1.17974e+01 -9.21596e+01 -8.74058e+01
       E  3.65973e+01  1.71340e+01 -5.45597e+01
       E -2.17952e+01  9.93797e+00  8.32488e+00
3
# CELL(abcABC): 1322.94304  1322.94304  1322.94304    90.00000    90.00000    90.00000  Step:        6700  Bead:      26 positions{angstrom}  cell{angstrom}
       E  3.70056e+01 -1.02456e+02 -1.10509e+02
       E  6.46030e+01 -2.03935e+00 -1.85214e+01
       E -3.05193e+01 -1.88122e+01  2.35316e+01
3
# CELL(abcABC): 1322.94304  1322.94304  1322.94304    90.00000    90.00000    90.00000  Step:        6800  Bead:      26 positions{angstrom}  cell{angstrom}
       E  5.05147e+01 -1.14733e+02 -1.09237e+02
       E  2.71848e+01 -2.58133e+01 -1.88413e+01
       E -3.83021e+01 -4.93983e+01  2.50738e+01
3
# CELL(abcABC): 1322.94304  1322.94304  1322.94304    90.00000    90.00000    90.00000  Step:        6900  Bead:      26 positions{angstrom}  cell{angstrom}
       E  3.73157e+01 -1.01148e+02 -2.74128e+01
       E  4.24877e+01 -4.68950e+00 -2.43699e+01
       E  2.26914e+00 -2.57051e+01  6.87372e+00
3
# CELL(abcABC): 1322.94304  1322.94304  1322.94304    90.00000    90.00000    90.00000  Step:        7000  Bead:      26 positions{angstrom}  cell{angstrom}
       E  4.14820e+01 -3.81148e+01 -1.83937e+01
       E  2.63423e+01  2.95000e+01 -2.62396e+01
       E  1.98355e+01 -5.27825e+00 -3.06368e+01
3
# CELL(abcABC): 1322.94304  1322.94304  1322.94304    90.00000    90.00000    90.00000  Step:        7100  Bead:      26 positions{angstrom}  cell{angstrom}
       E -2.44992e-01 -4.20243e+01 -2.27895e+01
       E  2.50193e+01  5.13882e+01  9.25510e+00
       E  5.93351e+01 -1.57831e+01  3.18471e+00
3
# CELL(abcABC): 1322.94304  1322.94304  1322.94304    90.00000    90.00000    90.00000  Step:        7200  Bead:      26 positions{angstrom}  cell{angstrom}
       E -6.19653e+00 -2.09394e+01 -7.66934e+01
       E  4.86129e+00  1.31370e+01  1.87581e+01
       E  5.12023e+01  3.75676e+01 -3.99886e+01
3
# CELL(abcABC): 1322.94304  1322.94304  1322.94304    90.00000    90.00000    90.00000  Step:        7300  Bead:      26 positions{angstrom}  cell{angstrom}
       E  3.62652e+01 -1.09814e+01 -5.19066e+01
       E -5.86018e+01  7.25312e+00 -3.59902e+00
       E  5.34891e+01  4.84304e+01 -4.25922e+00
3
# CELL(abcABC): 1322.94304  1322.94304  1322.94304    90.00000    90.00000    90.00000  Step:        7400  Bead:      26 positions{angstrom}  cell{angstrom}
       E -5.57718e+00 -5.09531e+01 -2.01872e+01
       E -2.19344e+01  5.00162e+00 -1.27114e+01
       E  6.53026e+01  2.60734e+01 -3.52384e+00
3
# CELL(abcABC): 1322.94304  1322.94304  1322.94304    90.00000    90.00000    90.00000  Step:        7500  Bead:      26 positions{angstrom}  cell{angstrom}
       E -1.88864e+01 -4.48532e+01 -4.76265e+01
       E -1.08124e+01 -5.40229e+00 -9.15202e+00
       E  2.48420e+01  5.01751e+01 -2.57162e+00
3
# CELL(abcABC): 1322.94304  1322.94304  1322.94304    90.00000    90.00000    90.00000  Step:        7600  Bead:      26 positions{angstrom}  cell{angstrom}
       E -2.04191e+01 -8.44323e+01 -7.43875e+01
       E -6.66762e+01 -3.37779e+01  2.41896e+01
       E  4.16596e+01  3.64565e+01 -2.24951e+01
3
# CELL(abcABC): 1322.94304  1322.94304  1322.94304    90.00000    90.00000    90.00000  Step:        7700  Bead:      26 positions{angstrom}  cell{angstrom}
       E -1.79836e+01 -4.84351e+01 -5.14560e+01
       E -1.17892e+01 -4.06850e+01 -9.07261e+00
       E  6.52007e+01  8.56747e+00 -3.57015e+01
3
# CELL(abcABC): 1322.94304  1322.94304  1322.94304    90.00000    90.00000    90.00000  Step:        7800  Bead:      26 positions{angstrom}  cell{angstrom}
       E -1.70493e+01 -5.03511e+01 -3.80882e+01
       E  7.43698e-01 -3.57265e+01 -2.44931e+01
       E  5.91763e+01 -5.24860e-01 -5.32152e+00
3
# CELL(abcABC): 1322.94304  1322.94304  1322.94304    90.00000    90.00000    90.00000  Step:        7900  Bead:      26 positions{angstrom}  cell{angstrom}
       E  3.42058e+01 -3.21042e+01 -2.34630e+01
       E  3.34504e+01 -5.72206e+01 -4.64832e+01
       E  2.88077e+01 -1.14695e+01 -5.80616e+01
3
# CELL(abcABC): 1322.94304  1322.94304  1322.94304    90.00000    90.00000    90.00000  Step:        8000  Bead:      26 positions{angstrom}  cell{angstrom}
       E  1.89863e+01 -3.37646e+00 -2.41589e+01
       E  1.35322e+00 -1.31863e+01 -6.52967e+01
       E  4.08164e+01  1.90127e+01 -6.46331e+00
3
# CELL(abcABC): 1322.94304  1322.94304  1322.94304    90.00000    90.00000    90.00000  Step:        8100  Bead:      26 positions{angstrom}  cell{angstrom}
       E  2.63832e+01  5.04866e+01 -2.79891e+01
       E -5.04270e+01  2.86507e+00 -6.35202e+01
       E  1.58908e+01 -9.54006e+00  1.29107e+01
3
# CELL(abcABC): 1322.94304  1322.94304  1322.94304    90.00000    90.00000    90.00000  Step:        8200  Bead:      26 positions{angstrom}  cell{angstrom}
       E  6.50585e+00  6.93253e+01  2.22750e+01
       E  1.57031e+00  1.04578e+01 -1.92089e+01
       E -1.44845e+01 -4.43117e+01  8.79628e+00
3
# CELL(abcABC): 1322.94304  1322.94304  1322.94304    90.00000    90.00000    90.00000  Step:        8300  Bead:      26 positions{angstrom}  cell{angstrom}
       E  9.63283e+00  7.65408e+01  2.80691e+01
       E  9.87605e+00 -6.78809e+00 -2.00650e+01
       E  2.49415e+01 -4.47535e+01  2.20651e+01
3
# CELL(abcABC): 1322.94304  1322.94304  1322.94304    90.00000    90.00000    90.00000  Step:        8400  Bead:      26 positions{angstrom}  cell{angstrom}
       E -1.30877e+01 -1.21356e+01  8.00126e+00
       E  2.41450e+00  2.79855e+01  3.65225e+01
       E -9.28131e+00 -4.64560e+01  6.40810e+01
3
# CELL(abcABC): 1322.94304  1322.94304  1322.94304    90.00000    90.00000    90.00000  Step:        8500  Bead:      26 positions{angstrom}  cell{angstrom}
       E -9.18779e+00 -1.45993e+01 -2.98995e+01
       E -3.30859e+00 -6.59842e+00 -1.75588e+01
       E  7.61956e+00 -1.97670e+01  4.94352e+01
3
# CELL(abcABC): 1322.94304  1322.94304  1322.94304    90.00000    90.00000    90.00000  Step:        8600  Bead:      26 positions{angstrom}  cell{angstrom}
       E -1.33540e+00 -8.43453e+00 -1.48299e+01
       E  2.23508e+01 -1.69990e+01  3.80100e+01
       E  5.16280e+01  1.68047e-01  5.82420e+01
3
# CELL(abcABC): 1322.94304  1322.94304  1322.94304    90.00000    90.00000    90.00000  Step:        8700  Bead:      26 positions{angstrom}  cell{angstrom}
       E -1.00000e+00  3.79758e-01 -2.22510e+01
       E  3.78507e+00  9.91798e-01  3.63055e+01
       E  6.54592e+01 -1.13905e+01  1.42803e+01
3
# CELL(abcABC): 1322.94304  1322.94304  1322.94304    90.00000    90.00000    90.00000  Step:        8800  Bead:      26 positions{angstrom}  cell{angstrom}
       E -4.33865e+01  1.09183e+01  4.36648e+00
       E -1.11717e+01 -3.06417e+01  2.53750e+01
       E  5.20899e+01 -2.49598e+01  2.10995e+01
3
# CELL(abcABC): 1322.94304  1322.94304  1322.94304    90.00000    90.00000    90.00000  Step:        8900  Bead:      26 positions{angstrom}  cell{angstrom}
       E -3.72880e+01  2.91179e+01  5.74495e+00
       E  1.26054e+01 -3.84145e+01  1.28893e+01
       E  3.49771e+01 -5.56111e+01  1.16741e+01
3
# CELL(abcABC): 1322.94304  1322.94304  1322.94304    90.00000    90.00000    90.00000  Step:        9000  Bead:      26 positions{angstrom}  cell{angstrom}
       E -3.00277e+01  3.99532e+01  2.13079e+01
       E  1.28901e+01 -3.83239e+01  5.94855e+01
       E  1.51034e+00 -9.18570e+01  7.97637e-01
3
# CELL(abcABC): 1322.94304  1322.94304  1322.94304    90.00000    90.00000    90.00000  Step:        9100  Bead:      26 positions{angstrom}  cell{angstrom}
       E -3.54296e+01  2.50564e+01 -4.78873e+00
       E -8.71057e+00 -2.32061e+00  4.48542e+01
       E  4.29169e+01 -6.40830e+01 -4.69052e-01
3
# CELL(abcABC): 1322.94304  1322.94304  1322.94304    90.00000    90.00000    90.00000  Step:        9200  Bead:      26 positions{angstrom}  cell{angstrom}
       E  2.01166e+01  3.78651e+01 -3.35197e+01
       E  1.18610e+01 -5.82366e+00 -4.58347e+00
       E  3.94803e+01 -4.03494e+01  1.90731e+00
3
# CELL(abcABC): 1322.94304  1322.94304  1322.94304    90.00000    90.00000    90.00000  Step:        9300  Bead:      26 positions{angstrom}  cell{angstrom}
       E  3.83247e+01 -2.30604e+01 -8.57590e+01
       E -2.48119e+01 -3.65331e+01  3.12948e+01
       E  2.95264e+01 -9.12413e+00  1.15126e+01
3
# CELL(abcABC): 1322.94304  1322.94304  1322.94304    90.00000    90.00000    90.00000  Step:        9400  Bead:      26 positions{angstrom}  cell{angstrom}
       E  6.32882e+01  8.26643e+00 -7.18961e+01
       E -1.82962e+00 -2.38840e+01  2.94659e+01
       E  2.39320e+01 -1.00736e+01 -1.70987e+01
3
# CELL(abcABC): 1322.94304  1322.94304  1322.94304    90.00000    90.00000    90.00000  Step:        9500  Bead:      26 positions{angstrom}  cell{angstrom}
       E  3.53489e+01  3.76017e+01 -4.46160e+01
       E  1.92124e+01 -1.97913e+01  4.66397e+01
       E  3.03540e+01 -2.01554e+00  3.94119e+00
3
# CELL(abcABC): 1322.94304  1322.94304  1322.94304    90.00000    90.00000    90.00000  Step:        9600  Bead:      26 positions{angstrom}  cell{angstrom}
       E  3.73975e+01 -2.62746e+01 -5.08767e+01
       E  3.37118e+01 -4.21614e+01 -7.31690e+00
       E  7.80909e+00 -7.10883e+00 -1.44493e+01
3
# CELL(abcABC): 1322.94304  1322.94304  1322.94304    90.00000    90.00000    90.00000  Step:        9700  Bead:      26 positions{angstrom}  cell{angstrom}
       E -2.01019e+01 -4.79120e+01 -7.31401e+01
       E  4.36377e+01 -1.07440e+02  5.13919e+00
       E -3.05775e+01 -5.95450e+00 -2.48830e+00
3
# CELL(abcABC): 1322.94304  1322.94304  1322.94304    90.00000    90.00000    90.00000  Step:        9800  Bead:      26 positions{angstrom}  cell{angstrom}
       E -4.09985e+01 -5.61755e+01 -2.59459e+01
       E  4.27367e+01 -5.54642e+01 -5.35480e+00
       E -2.12667e+01 -1.50781e+01  7.44098e+00
3