3
# CELL(abcABC): 1322.94304  1322.94304  1322.94304    90.00000    90.00000    90.00000  Step:           0  Bead:      31 positions{angstrom}  cell{angstrom}
       E  0.00000e+00  0.00000e+00  0.00000e+00
       E  0.00000e+00  0.00000e+00  0.00000e+00
       E  0.00000e+00  0.00000e+00  0.00000e+00
3
# CELL(abcABC): 1322.94304  1322.94304  1322.94304    90.00000    90.00000    90.00000  Step:         100  Bead:      31 positions{angstrom}  cell{angstrom}
       E  2.78613e+01 -4.79982e+00  4.34778e+00
       E -7.43037e+00  3.14246e+00 -2.32669e+01
       E -6.14943e+00 -4.65797e+01 -4.88844e-02
3
# CELL(abcABC): 1322.94304  1322.94304  1322.94304    90.00000    90.00000    90.00000  Step:         200  Bead:      31 positions{angstrom}  cell{angstrom}
       E -1.71122e+01  2.20106e+01  2.82977e+01
       E  3.20646e+01  5.97347e+00  2.05548e+00
       E -1.78298e+01 -1.44312e+01  7.16755e+00
3
# CELL(abcABC): 1322.94304  1322.94304  1322.94304    90.00000    90.00000    90.00000  Step:         300  Bead:      31 positions{angstrom}  cell{angstrom}
       E  1.29732e+01  2.30829e+01  1.41121e+01
       E  2.27332e+01 -2.14324e+01  2.72606e+01
       E -6.42209e-01  1.22084e+01 -3.89995e+01
3
# CELL(abcABC): 1322.94304  1322.94304  1322.94304    90.00000    90.00000    90.00000  Step:         400  Bead:      31 positions{angstrom}  cell{angstrom}
       E  7.42996e+00  3.22354e+01  1.53693e+01
       E  5.02851e+01 -2.80478e+00  6.84400e+00
       E  3.60630e+01  9.25546e+00 -5.44608e+01
3
# CELL(abcABC): 1322.94304  1322.94304  1322.94304    90.00000    90.00000    90.00000  Step:         500  Bead:      31 positions{angstrom}  cell{angstrom}
       E -1.13809e+01  1.94908e+01  3.42381e+01
       E  3.81236e+01  2.42476e+00  7.03738e+00
       E  8.46815e+00  1.55082e+00 -2.94142e+01
3
# CELL(abcABC): 1322.94304  1322.94304  1322.94304    90.00000    90.00000    90.00000  Step:         600  Bead:      31 positions{angstrom}  cell{angstrom}
       E -2.33364e+01  4.90066e+00  2.75218e+01
       E -1.80216e+01 -1.74319e+00  3.07827e+01
       E  2.24633e+01  1.11858e+01 -2.85253e+01
3
# CELL(abcABC): 1322.94304  1322.94304  1322.94304    90.00000    90.00000    90.00000  Step:         700  Bead:      31 positions{angstrom}  cell{angstrom}
       E -1.00644e+01  1.80223e+01 -6.60314e+00
       E -3.57440e+01 -6.29734e+00  2.65530e+01
       E -2.31239e+01  2.28545e+01  9.89345e+00
3
# CELL(abcABC): 1322.94304  1322.94304  1322.94304    90.00000    90.00000    90.00000  Step:         800  Bead:      31 positions{angstrom}  cell{angstrom}
       E  1.25175e+01  2.43650e+01  1.08947e+01
       E  8.07770e+00 -4.83829e+00  2.81442e+01
       E -4.71748e+01  1.14457e+01  9.67631e+00
3
# CELL(abcABC): 1322.94304  1322.94304  1322.94304    90.00000    90.00000    90.00000  Step:         900  Bead:      31 positions{angstrom}  cell{angstrom}
       E  3.59794e+01  2.01044e+01  1.02607e+01
       E  3.22349e+01  2.46205e+01  2.62755e+01
       E -6.71189e+01  4.67825e+01  6.47175e+01
3
# CELL(abcABC): 1322.94304  1322.94304  1322.94304    90.00000    90.00000    90.00000  Step:        1000  Bead:      31 positions{angstrom}  cell{angstrom}
       E  5.52065e+00  8.57362e+00 -1.55117e+00
       E  2.05437e+01  2.97915e+00 -3.10468e+01
       E -1.62608e+01  2.00757e+00  7.51722e+01
3
# CELL(abcABC): 1322.94304  1322.94304  1322.94304    90.00000    90.00000    90.00000  Step:        1100  Bead:      31 positions{angstrom}  cell{angstrom}
       E  1.15706e+01  4.94217e+01  8.75801e+00
       E  3.35362e+01  1.65646e+01 -2.06911e+01
       E -1.77137e+01 -7.38634e-01  4.50962e+01
3
# CELL(abcABC): 1322.94304  1322.94304  1322.94304    90.00000    90.00000    90.00000  Step:        1200  Bead:      31 positions{angstrom}  cell{angstrom}
       E  8.89312e+00  3.38634e+01 -2.97994e+01
       E  7.04226e+00 -8.62407e+00 -3.17698e+01
       E  3.89615e+01  2.81250e+01  1.75552e+00
3
# CELL(abcABC): 1322.94304  1322.94304  1322.94304    90.00000    90.00000    90.00000  Step:        1300  Bead:      31 positions{angstrom}  cell{angstrom}
       E -1.66382e+00  2.39215e+01 -4.02406e+01
       E  1.38132e+01 -2.33895e+01 -5.35074e+01
       E -1.05569e+01  2.90412e+01 -1.84678e+01
3
# CELL(abcABC): 1322.94304  1322.94304  1322.94304    90.00000    90.00000    90.00000  Step:        1400  Bead:      31 positions{angstrom}  cell{angstrom}
       E -3.79956e+01  2.09330e+01 -3.58897e+01
       E  4.57254e+00 -1.55266e+01 -5.69372e+01
       E -4.44679e+01  5.23471e+01  1.68104e+01
3
# CELL(abcABC): 1322.94304  1322.94304  1322.94304    90.00000    90.00000    90.00000  Step:        1500  Bead:      31 positions{angstrom}  cell{angstrom}
       E -5.28329e+01  4.07463e+01 -4.75672e+01
       E -3.67558e+01 -3.08695e+01 -2.64121e+01
       E  1.64188e+01  7.05215e+01  4.76522e+01
3
# CELL(abcABC): 1322.94304  1322.94304  1322.94304    90.00000    90.00000    90.00000  Step:        1600  Bead:      31 positions{angstrom}  cell{angstrom}
       E -3.19651e+01  6.13144e+01 -7.55213e+01
       E -1.67322e+01 -2.98152e+01  4.51532e+00
       E -2.42267e+00  4.57421e+01  3.10430e+01
3
# CELL(abcABC): 1322.94304  1322.94304  1322.94304    90.00000    90.00000    90.00000  Step:        1700  Bead:      31 positions{angstrom}  cell{angstrom}
       E -2.68127e+01  3.38617e+01 -5.55861e+00
       E -2.89285e+01 -3.89401e+01 -2.24837e+01
       E -4.56031e+01  3.69529e+01 -6.60130e+00
3
# CELL(abcABC): 1322.94304  1322.94304  1322.94304    90.00000    90.00000    90.00000  Step:        1800  Bead:      31 positions{angstrom}  cell{angstrom}
       E -4.66106e+01  4.23933e+01  4.68862e+00
       E -4.97591e+01 -6.62574e+00  6.45507e+00
       E -2.44265e+01  1.64373e+01  9.66179e+00
3
# CELL(abcABC): 1322.94304  1322.94304  1322.94304    90.00000    90.00000    90.00000  Step:        1900  Bead:      31 positions{angstrom}  cell{angstrom}
       E -5.10263e+01  2.93656e+01  3.79337e+01
       E -2.60899e+01 -1.67146e+01  1.15386e+01
       E -3.53592e+01  2.57249e+01  1.55632e+00
3
# CELL(abcABC): 1322.94304  1322.94304  1322.94304    90.00000    90.00000    90.00000  Step:        2000  Bead:      31 positions{angstrom}  cell{angstrom}
       E -2.42626e+01  1.58660e+01  4.22438e+01
       E  9.90398e-02 -2.40285e+01  2.71324e+00
       E -2.02394e+01 -2.39411e+00  1.19779e+01
3
# CELL(abcABC): 1322.94304  1322.94304  1322.94304    90.00000    90.00000    90.00000  Step:        2100  Bead:      31 positions{angstrom}  cell{angstrom}
       E -3.62101e+01 -1.49933e+01  4.13943e+01
       E -4.69822e+01 -5.76610e+00 -8.96027e+00
       E -3.67830e+01  1.98681e+01 -2.55747e+01
3
# CELL(abcABC): 1322.94304  1322.94304  1322.94304    90.00000    90.00000    90.00000  Step:        2200  Bead:      31 positions{angstrom}  cell{angstrom}
       E -6.14344e+01 -3.33124e+01  1.86155e+01
       E -4.47361e+01  9.64658e+00  1.46854e+01
       E -1.37440e+00 -2.61377e+00 -2.86306e+00
3
# CELL(abcABC): 1322.94304  1322.94304  1322.94304    90.00000    90.00000    90.00000  Step:        2300  Bead:      31 positions{angstrom}  cell{angstrom}
       E -4.80697e+01  8.13632e+00  3.39875e+01
       E -3.74698e+01 -3.02473e+01 -2.13335e+01
       E  5.08335e+00 -5.15001e+00 -2.38444e+01
3
# CELL(abcABC): 1322.94304  1322.94304  1322.94304    90.00000    90.00000    90.00000  Step:        2400  Bead:      31 positions{angstrom}  cell{angstrom}
       E -5.31074e+01  2.29936e+00  4.21510e+01
       E -3.17455e+01 -3.75691e+01 -3.25194e+01
       E  7.42763e+00  1.26778e+00  6.71575e+00
3
# CELL(abcABC): 1322.94304  1322.94304  1322.94304    90.00000    90.00000    90.00000  Step:        2500  Bead:      31 positions{angstrom}  cell{angstrom}
       E -7.15413e+01 -8.79539e+00  6.07612e+01
       E -2.31691e+01 -3.38656e+01  7.98369e+00
       E  1.50547e+01 -1.74703e+01  2.85311e+01
3
# CELL(abcABC): 1322.94304  1322.94304  1322.94304    90.00000    90.00000    90.00000  Step:        2600  Bead:      31 positions{angstrom}  cell{angstrom}
       E -4.10138e+01 -3.59537e+01  7.44459e+01
       E -2.97321e+01 -8.19927e+01 -2.78426e+01
       E  3.73122e+01  1.79077e+01  7.00615e+01
3
# CELL(abcABC): 1322.94304  1322.94304  1322.94304    90.00000    90.00000    90.00000  Step:        2700  Bead:      31 positions{angstrom}  cell{angstrom}
       E -5.44084e+01 -5.46786e+01  9.97347e+01
       E -6.07086e+01 -5.20617e+01  5.15987e+00
       E  3.32042e+00 -2.96897e+01  6.51120e+01
3
# CELL(abcABC): 1322.94304  1322.94304  1322.94304    90.00000    90.00000    90.00000  Step:        2800  Bead:      31 positions{angstrom}  cell{angstrom}
       E -3.19476e+01 -4.58046e+01  8.07378e+01
       E -5.66257e+01 -3.43713e+01 -2.36816e+00
       E  3.08478e+01 -2.20459e+01  6.25942e+01
3
# CELL(abcABC): 1322.94304  1322.94304  1322.94304    90.00000    90.00000    90.00000  Step:        2900  Bead:      31 positions{angstrom}  cell{angstrom}
       E -5.88786e+01 -5.76764e+01  6.17930e+01
       E -4.88945e+01 -5.60422e+01  1.52647e+01
       E  1.85060e+01 -7.31979e+01  4.94526e+01
3
# CELL(abcABC): 1322.94304  1322.94304  1322.94304    90.00000    90.00000    90.00000  Step:        3000  Bead:      31 positions{angstrom}  cell{angstrom}
       E -2.48038e+01 -4.55709e+01  5.00903e+01
       E -2.96245e+01 -5.42059e+01 -1.16681e+00
       E  2.45665e+01 -2.75410e+01  2.64774e+01
3
# CELL(abcABC): 1322.94304  1322.94304  1322.94304    90.00000    90.00000    90.00000  Step:        3100  Bead:      31 positions{angstrom}  cell{angstrom}
       E -4.53446e+01 -4.35720e+01  5.12784e+01
       E -2.84576e+01 -4.99659e+01  3.96717e+01
       E  1.10209e+01  3.21643e+00  5.04682e+00
3
# CELL(abcABC): 1322.94304  1322.94304  1322.94304    90.00000    90.00000    90.00000  Step:        3200  Bead:      31 positions{angstrom}  cell{angstrom}
       E -4.61213e+01 -3.15057e+01  5.14144e+01
       E -5.58834e+01 -4.88659e+01  3.46034e+01
       E  2.03045e+01  5.84827e+00  2.67454e+01
3
# CELL(abcABC): 1322.94304  1322.94304  1322.94304    90.00000    90.00000    90.00000  Step:        3300  Bead:      31 positions{angstrom}  cell{angstrom}
       E -4.45965e+01  2.20201e+01  9.59646e+01
       E -6.16696e+01 -2.08862e+01  6.85602e+01
       E  1.22586e+01  4.52386e+01  7.72421e+01
3
# CELL(abcABC): 1322.94304  1322.94304  1322.94304    90.00000    90.00000    90.00000  Step:        3400  Bead:      31 positions{angstrom}  cell{angstrom}
       E -4.69132e+01  2.11240e+01  6.53072e+01
       E -6.26530e+01 -1.61300e+01  5.39622e+01
       E -3.49024e+00  4.36727e+01  5.13364e+01
3
# CELL(abcABC): 1322.94304  1322.94304  1322.94304    90.00000    90.00000    90.00000  Step:        3500  Bead:      31 positions{angstrom}  cell{angstrom}
       E -7.67487e+01 -1.53581e+01  3.60833e+01
       E -7.98008e+01 -3.53204e+01  3.56493e+01
       E -2.27080e+01  4.51702e+01  3.09368e+01
3
# CELL(abcABC): 1322.94304  1322.94304  1322.94304    90.00000    90.00000    90.00000  Step:        3600  Bead:      31 positions{angstrom}  cell{angstrom}
       E -7.43710e+01 -4.15834e+01  3.26231e+01
       E -5.30497e+01 -3.25949e+01  3.36461e+01
       E -6.11348e+01  9.75866e+00 -1.35168e+01
3
# CELL(abcABC): 1322.94304  1322.94304  1322.94304    90.00000    90.00000    90.00000  Step:        3700  Bead:      31 positions{angstrom}  cell{angstrom}
       E -7.61902e+01 -4.78688e+01  1.82747e+01
       E -1.02187e+00 -2.72039e+01 -1.86456e+01
       E -5.32552e+01  7.62359e+00 -2.07217e+01
3
# CELL(abcABC): 1322.94304  1322.94304  1322.94304    90.00000    90.00000    90.00000  Step:        3800  Bead:      31 positions{angstrom}  cell{angstrom}
       E -5.26636e+01 -5.51838e+01  2.32503e+01
       E  3.76008e+00 -2.94165e+01 -1.98504e+01
       E -2.88103e+01 -2.63288e+01 -1.48540e+01
3
# CELL(abcABC): 1322.94304  1322.94304  1322.94304    90.00000    90.00000    90.00000  Step:        3900  Bead:      31 positions{angstrom}  cell{angstrom}
       E -6.18135e+01 -3.29820e+01  2.26098e+01
       E -3.94234e+01 -2.98947e+01 -2.19986e+01
       E -1.75317e+01 -3.18141e+01 -1.68398e-01
3
# CELL(abcABC): 1322.94304  1322.94304  1322.94304    90.00000    90.00000    90.00000  Step:        4000  Bead:      31 positions{angstrom}  cell{angstrom}
       E -6.08047e+01 -2.31647e+01  3.35380e+00
       E -4.17847e+01 -4.68276e+00 -1.86709e+00
       E -4.15665e+01 -7.73259e+00  3.94116e+00
3
# CELL(abcABC): 1322.94304  1322.94304  1322.94304    90.00000    90.00000    90.00000  Step:        4100  Bead:      31 positions{angstrom}  cell{angstrom}
       E -8.45848e+01  1.25777e+01 -3.44413e+01
       E -2.44568e+01  1.70169e+01  5.41327e+00
       E -5.86581e+01  2.69910e+01 -1.55072e+01
3
# CELL(abcABC): 1322.94304  1322.94304  1322.94304    90.00000    90.00000    90.00000  Step:        4200  Bead:      31 positions{angstrom}  cell{angstrom}
       E -4.15293e+01 -6.87606e-01 -7.04714e+01
       E -3.78183e+01  3.46365e+01 -4.62752e-01
       E -5.50963e+01 -1.40970e+01 -1.70759e+01
3
# CELL(abcABC): 1322.94304  1322.94304  1322.94304    90.00000    90.00000    90.00000  Step:        4300  Bead:      31 positions{angstrom}  cell{angstrom}
       E -6.35799e+01  2.53306e+00 -1.02847e+02
       E -1.89450e+01  4.34915e+01  6.19803e+00
       E -9.34366e+00 -3.30536e+00  1.70762e+01
3
# CELL(abcABC): 1322.94304  1322.94304  1322.94304    90.00000    90.00000    90.00000  Step:        4400  Bead:      31 positions{angstrom}  cell{angstrom}
       E -1.48694e+01  5.41309e+01 -9.82558e+01
       E -6.12282e+01  6.12189e+01  2.69760e+01
       E -3.72520e+01 -2.77142e+00  9.97105e+00
3
# CELL(abcABC): 1322.94304  1322.94304  1322.94304    90.00000    90.00000    90.00000  Step:        4500  Bead:      31 positions{angstrom}  cell{angstrom}
       E -4.29902e+01  1.25501e+01 -7.12877e+01
       E -6.25308e+01  4.87661e+01  3.17855e+01
       E -3.47248e+01  8.59459e-01  2.55156e+00
3
# CELL(abcABC): 1322.94304  1322.94304  1322.94304    90.00000    90.00000    90.00000  Step:        4600  Bead:      31 positions{angstrom}  cell{angstrom}
       E -2.82983e+01  2.83788e+01 -2.93248e+01
       E -5.52884e+01  5.43437e+01  3.11409e+01
       E  1.13198e+01 -1.92480e+01 -2.53626e+00
3
# CELL(abcABC): 1322.94304  1322.94304  1322.94304    90.00000    90.00000    90.00000  Step:        4700  Bead:      31 positions{angstrom}  cell{angstrom}
       E  9.66121e+00  1.59874e+01 -4.15632e+01
       E -5.78846e+01  3.60998e+00  2.47395e-01
       E  1.08487e+01 -2.08529e+01  2.97210e+01
3
# CELL(abcABC): 1322.94304  1322.94304  1322.94304    90.00000    90.00000    90.00000  Step:        4800  Bead:      31 positions{angstrom}  cell{angstrom}
       E  2.33322e+01  5.35552e+01 -2.93300e+01
       E -5.89305e+01 -1.79237e+01 -2.95254e+01
       E  1.52616e+01 -2.14367e+01 -2.44885e+01
3
# CELL(abcABC): 1322.94304  1322.94304  1322.94304    90.00000    90.00000    90.00000  Step:        4900  Bead:      31 positions{angstrom}  cell{angstrom}
       E  3.62556e+01  2.31201e+01 -3.77234e+01
       E -5.46616e+01 -6.02883e+01 -2.16397e+01
       E  9.41856e+00 -6.61640e+00 -2.69165e+01
3
# CELL(abcABC): 1322.94304  1322.94304  1322.94304    90.00000    90.00000    90.00000  Step:        5000  Bead:      31 positions{angstrom}  cell{angstrom}
       E  7.38640e+01  1.64638e+01 -2.77842e+01
       E -6.75200e+01 -4.21808e+01 -4.10039e+01
       E  2.71751e+01 -2.04206e+01 -5.47031e+00
3
# CELL(abcABC): 1322.94304  1322.94304  1322.94304    90.00000    90.00000    90.00000  Step:        5100  Bead:      31 positions{angstrom}  cell{angstrom}
       E  8.10641e+01  6.44128e+01  2.31592e+01
       E -8.18127e+01 -3.26666e+01 -1.57896e+01
       E  9.25026e+00 -1.13166e+01 -2.58281e-01
3
# CELL(abcABC): 1322.94304  1322.94304  1322.94304    90.00000    90.00000    90.00000  Step:        5200  Bead:      31 positions{angstrom}  cell{angstrom}
       E  3.49593e+01  1.81538e+01 -4.92340e+00
       E -8.30856e+01  2.28682e+00  1.61517e+00
       E  5.59043e+00  1.58165e+01 -3.00332e+01
3
# CELL(abcABC): 1322.94304  1322.94304  1322.94304    90.00000    90.00000    90.00000  Step:        5300  Bead:      31 positions{angstrom}  cell{angstrom}
       E  1.68866e+01  8.75982e+00  6.50101e+00
       E -5.61562e+01  3.41748e+01 -2.20036e+00
       E -7.11030e+00  2.51347e+01  1.07784e+01
3
# CELL(abcABC): 1322.94304  1322.94304  1322.94304    90.00000    90.00000    90.00000  Step:        5400  Bead:      31 positions{angstrom}  cell{angstrom}
       E  3.06823e+00  2.00243e+01 -2.15310e+01
       E -7.18082e+01  3.15779e+01 -2.44558e+01
       E  5.45057e+00  2.08332e+01  3.18999e+01
3
# CELL(abcABC): 1322.94304  1322.94304  1322.94304    90.00000    90.00000    90.00000  Step:        5500  Bead:      31 positions{angstrom}  cell{angstrom}
       E -7.39900e+00  4.56817e+01 -7.14532e+00
       E -3.44375e+01  1.12181e+01 -2.38051e+00
       E  1.79828e+01  2.24738e+01  1.73594e+01
3
# CELL(abcABC): 1322.94304  1322.94304  1322.94304    90.00000    90.00000    90.00000  Step:        5600  Bead:      31 positions{angstrom}  cell{angstrom}
       E  1.26795e+01  1.85788e+01  9.73910e+00
       E -3.05693e+01  3.12053e+01 -5.43362e+00
       E -1.77897e+01  2.43945e+01 -8.40506e+00
3
# CELL(abcABC): 1322.94304  1322.94304  1322.94304    90.00000    90.00000    90.00000  Step:        5700  Bead:      31 positions{angstrom}  cell{angstrom}
       E -1.00607e-01  7.57495e+00 -1.52353e+01
       E -1.40640e+01  9.93589e+00 -2.10466e+01
       E -3.67266e+01 -2.02295e+01  1.50558e+01
3
# CELL(abcABC): 1322.94304  1322.94304  1322.94304    90.00000    90.00000    90.00000  Step:        5800  Bead:      31 positions{angstrom}  cell{angstrom}
       E -2.65071e+01  3.68957e+01  5.32776e+00
       E -1.08643e+01  4.16366e+00  8.02380e+00
       E -1.85074e+01 -3.81372e+01 -3.20021e+01
3
# CELL(abcABC): 1322.94304  1322.94304  1322.94304    90.00000    90.00000    90.00000  Step:        5900  Bead:      31 positions{angstrom}  cell{angstrom}
       E -1.95778e+01  2.12640e+01  1.80105e+01
       E -9.25468e+00  2.82328e+01 -1.76554e+01
       E -1.15037e+00 -4.56236e+01 -2.79840e+00
3
# CELL(abcABC): 1322.94304  1322.94304  1322.94304    90.00000    90.00000    90.00000  Step:        6000  Bead:      31 positions{angstrom}  cell{angstrom}
       E -1.55107e+01 -1.02135e+01 -3.72920e+01
       E -4.49354e+00 -2.11566e+01 -3.18509e+01
       E  8.84432e+00 -5.54256e+01 -6.40411e+00
3
# CELL(abcABC): 1322.94304  1322.94304  1322.94304    90.00000    90.00000    90.00000  Step:        6100  Bead:      31 positions{angstrom}  cell{angstrom}
       E  4.15816e+01 -3.23077e+01 -4.04377e+01
       E  2.66565e+01 -2.23167e+01 -4.23479e+01
       E  1.40490e+01 -3.53033e+01 -4.60121e+00
3
# CELL(abcABC): 1322.94304  1322.94304  1322.94304    90.00000    90.00000    90.00000  Step:        6200  Bead:      31 positions{angstrom}  cell{angstrom}
       E  3.46591e+01 -7.02123e+01 -6.66778e+01
       E  6.97503e+01 -2.02810e+01  2.21938e+00
       E  1.94307e+01 -4.96460e+01 -1.24093e+01
3
# CELL(abcABC): 1322.94304  1322.94304  1322.94304    90.00000    90.00000    90.00000  Step:        6300  Bead:      31 positions{angstrom}  cell{angstrom}
       E  5.30720e+01 -8.15302e+01 -1.09059e+02
       E  6.38936e+01 -2.85711e+01 -1.40414e+01
       E  1.88541e+01 -2.55806e+01  7.93339e+00
3
# CELL(abcABC): 1322.94304  1322.94304  1322.94304    90.00000    90.00000    90.00000  Step:        6400  Bead:      31 positions{angstrom}  cell{angstrom}
       E  1.57525e+01 -8.56538e+01 -1.06800e+02
       E  5.82836e+01 -1.66389e+01 -2.86094e+01
       E  1.16795e+01 -1.55789e+01  3.05096e+01
3
# CELL(abcABC): 1322.94304  1322.94304  1322.94304    90.00000    90.00000    90.00000  Step:        6500  Bead:      31 positions{angstrom}  cell{angstrom}
       E  2.99394e+01 -7.71421e+01 -1.14534e+02
       E  1.57391e+01  7.89314e+00 -5.68777e+01
       E  1.09273e+00 -8.12079e+00 -1.47124e+01
3
# CELL(abcABC): 1322.94304  1322.94304  1322.94304    90.00000    90.00000    90.00000  Step:        6600  Bead:      31 positions{angstrom}  cell{angstrom}
       E  1.71171e+01 -8.26775e+01 -1.23637e+02
       E  1.30106e+01 -8.03924e+00 -9.23397e+00
       E -1.98288e+01 -6.14750e+01  6.90920e+00
3
# CELL(abcABC): 1322.94304  1322.94304  1322.94304    90.00000    90.00000    90.00000  Step:        6700  Bead:      31 positions{angstrom}  cell{angstrom}
       E  2.01705e+01 -8.81741e+01 -1.22380e+02
       E  2.05906e+01 -1.23155e+01 -3.82876e+01
       E -3.03899e+01 -3.53921e+01  3.53118e+01
3
# CELL(abcABC): 1322.94304  1322.94304  1322.94304    90.00000    90.00000    90.00000  Step:        6800  Bead:      31 positions{angstrom}  cell{angstrom}
       E  3.44626e+01 -8.09995e+01 -1.04481e+02
       E  3.83667e+01 -9.39881e+00 -2.43639e+01
       E -1.64038e+01 -1.55576e+01  6.51304e+01
3
# CELL(abcABC): 1322.94304  1322.94304  1322.94304    90.00000    90.00000    90.00000  Step:        6900  Bead:      31 positions{angstrom}  cell{angstrom}
       E -9.60720e+00 -9.81594e+01 -4.32437e+01
       E  2.12550e+01 -2.42425e+01  4.06880e+00
       E -4.06559e+00 -2.73875e+01  1.05513e+01
3
# CELL(abcABC): 1322.94304  1322.94304  1322.94304    90.00000    90.00000    90.00000  Step:        7000  Bead:      31 positions{angstrom}  cell{angstrom}
       E  6.39049e+00 -5.67137e+01 -2.32881e+01
       E -7.11250e+00  3.96789e+01 -6.97932e+00
       E  4.63261e+01  8.25454e+00  5.50930e+01
3
# CELL(abcABC): 1322.94304  1322.94304  1322.94304    90.00000    90.00000    90.00000  Step:        7100  Bead:      31 positions{angstrom}  cell{angstrom}
       E -7.02153e+00 -3.79620e+01 -3.64840e+01
       E -6.14893e+00  4.16298e+01  5.90433e+00
       E  4.38133e+01  2.25835e+01  7.24962e+00
3
# CELL(abcABC): 1322.94304  1322.94304  1322.94304    90.00000    90.00000    90.00000  Step:        7200  Bead:      31 positions{angstrom}  cell{angstrom}
       E -1.99497e+01 -2.79627e+01 -7.13995e+01
       E -2.32854e+01  5.59160e+01  3.41497e+01
       E  3.75576e+01  5.36683e+01  6.16773e+00
3
# CELL(abcABC): 1322.94304  1322.94304  1322.94304    90.00000    90.00000    90.00000  Step:        7300  Bead:      31 positions{angstrom}  cell{angstrom}
       E  4.08899e+01 -7.06345e+00 -6.47114e+01
       E -3.23321e+01  2.75648e+01  3.14558e+01
       E  5.33437e+01  1.96779e+01 -1.58606e+01
3
# CELL(abcABC): 1322.94304  1322.94304  1322.94304    90.00000    90.00000    90.00000  Step:        7400  Bead:      31 positions{angstrom}  cell{angstrom}
       E  2.75576e+01  1.76515e+00 -1.81702e+01
       E -1.03540e+00  2.00068e+01  1.58515e+01
       E  5.59779e+01  3.00921e+01 -4.84353e+01
3
# CELL(abcABC): 1322.94304  1322.94304  1322.94304    90.00000    90.00000    90.00000  Step:        7500  Bead:      31 positions{angstrom}  cell{angstrom}
       E -3.03192e+01 -3.47524e+01 -7.96036e+00
       E -3.79073e+01 -6.92077e+00  2.73654e+01
       E  5.39059e+01  4.92143e+01 -3.01043e+01
3
# CELL(abcABC): 1322.94304  1322.94304  1322.94304    90.00000    90.00000    90.00000  Step:        7600  Bead:      31 positions{angstrom}  cell{angstrom}
       E -2.72755e+01 -6.40709e+01 -2.43172e+01
       E -2.66834e+01 -3.85801e+01 -1.03635e+01
       E  6.10536e+01  8.72695e+01 -1.72356e+01
3
# CELL(abcABC): 1322.94304  1322.94304  1322.94304    90.00000    90.00000    90.00000  Step:        7700  Bead:      31 positions{angstrom}  cell{angstrom}
       E -9.70551e+00 -6.09508e+01 -5.76657e+01
       E  7.26186e+00 -6.44871e+01  1.01230e+01
       E  7.31845e+01  1.25394e+01 -3.04612e+01
3
# CELL(abcABC): 1322.94304  1322.94304  1322.94304    90.00000    90.00000    90.00000  Step:        7800  Bead:      31 positions{angstrom}  cell{angstrom}
       E -1.90904e+00 -5.01863e+01 -5.28399e+01
       E  1.64244e+01 -4.71437e+01 -3.18501e+01
       E  4.81445e+01  5.38785e-01 -3.36960e+01
3
# CELL(abcABC): 1322.94304  1322.94304  1322.94304    90.00000    90.00000    90.00000  Step:        7900  Bead:      31 positions{angstrom}  cell{angstrom}
       E  2.51238e+01  1.08435e+00 -2.63601e+01
       E  3.69640e+01 -1.83286e+01 -4.16770e+01
       E  9.38131e+01 -9.09197e+00 -5.21193e+01
3
# CELL(abcABC): 1322.94304  1322.94304  1322.94304    90.00000    90.00000    90.00000  Step:        8000  Bead:      31 positions{angstrom}  cell{angstrom}
       E  3.06895e+01  2.35818e+01 -4.29177e+00
       E  4.16917e-01 -1.64329e+01 -5.58067e+01
       E  4.70112e+01 -1.28102e+01 -2.71517e+01
3
# CELL(abcABC): 1322.94304  1322.94304  1322.94304    90.00000    90.00000    90.00000  Step:        8100  Bead:      31 positions{angstrom}  cell{angstrom}
       E  5.74347e+01  4.01547e+01  3.51648e+00
       E -7.65649e+00 -1.41246e+01 -7.18236e+01
       E -1.45421e+01 -2.48042e+01 -4.63310e-01
3
# CELL(abcABC): 1322.94304  1322.94304  1322.94304    90.00000    90.00000    90.00000  Step:        8200  Bead:      31 positions{angstrom}  cell{angstrom}
       E  2.54573e+01  2.09614e+01  3.03785e+00
       E  9.35805e-01  2.12295e+01 -1.89824e+01
       E -4.96502e+00 -4.34358e+01  2.71892e+00
3
# CELL(abcABC): 1322.94304  1322.94304  1322.94304    90.00000    90.00000    90.00000  Step:        8300  Bead:      31 positions{angstrom}  cell{angstrom}
       E  3.84467e+01  2.69157e+01 -6.09257e+00
       E  4.47996e+01  6.62947e+00  1.12042e+01
       E  6.01117e+00 -5.74104e+01  2.45750e+01
3
# CELL(abcABC): 1322.94304  1322.94304  1322.94304    90.00000    90.00000    90.00000  Step:        8400  Bead:      31 positions{angstrom}  cell{angstrom}
       E  3.06314e+01 -9.62149e+00 -1.53229e+01
       E  1.17334e+01  1.37213e+01  1.15903e+01
       E  1.57565e+01 -3.03828e+01  3.15209e+01
3
# CELL(abcABC): 1322.94304  1322.94304  1322.94304    90.00000    90.00000    90.00000  Step:        8500  Bead:      31 positions{angstrom}  cell{angstrom}
       E  1.04695e+01  1.23316e+01 -8.36825e+00
       E  1.37798e+01  3.52569e+01  3.14020e+01
       E  3.96939e+01  9.59552e+00  4.26739e+01
3
# CELL(abcABC): 1322.94304  1322.94304  1322.94304    90.00000    90.00000    90.00000  Step:        8600  Bead:      31 positions{angstrom}  cell{angstrom}
       E -1.66325e+01  3.09645e+00 -2.14741e+01
       E  4.49529e+01 -8.62886e+00  2.14952e+01
       E  5.54775e+01  1.16225e+01  2.51142e+01
3
# CELL(abcABC): 1322.94304  1322.94304  1322.94304    90.00000    90.00000    90.00000  Step:        8700  Bead:      31 positions{angstrom}  cell{angstrom}
       E -5.60646e+01  1.76290e+01 -2.59251e+01
       E  9.77653e+00 -1.25641e+01 -2.45185e+00
       E  9.12118e+01 -4.11188e+00  3.67519e+01
3
# CELL(abcABC): 1322.94304  1322.94304  1322.94304    90.00000    90.00000    90.00000  Step:        8800  Bead:      31 positions{angstrom}  cell{angstrom}
       E -2.39276e+01  2.76187e+01 -2.53910e+01
       E  6.99169e+00 -3.63413e+01  2.77244e+01
       E  6.50460e+01 -5.21480e+01  2.75882e+01
3
# CELL(abcABC): 1322.94304  1322.94304  1322.94304    90.00000    90.00000    90.00000  Step:        8900  Bead:      31 positions{angstrom}  cell{angstrom}
       E -1.59882e+01  2.76463e+01 -2.29253e+01
       E -1.12584e+01 -4.99749e+01  4.84341e+01
       E  4.24750e+01 -9.80698e+01  5.39296e+01
3
# CELL(abcABC): 1322.94304  1322.94304  1322.94304    90.00000    90.00000    90.00000  Step:        9000  Bead:      31 positions{angstrom}  cell{angstrom}
       E -3.01457e+01  8.22484e+01  9.17611e-01
       E -6.53985e+01 -5.81307e+01  2.60947e+01
       E  1.29944e+01 -6.80966e+01  9.32680e-03
3
# CELL(abcABC): 1322.94304  1322.94304  1322.94304    90.00000    90.00000    90.00000  Step:        9100  Bead:      31 positions{angstrom}  cell{angstrom}
       E  1.23379e+01  2.88417e+01  2.66794e+01
       E -3.90133e+01 -4.70589e+00  9.99192e+00
       E -1.25291e+00 -7.36114e+01 -6.44389e+00
3
# CELL(abcABC): 1322.94304  1322.94304  1322.94304    90.00000    90.00000    90.00000  Step:        9200  Bead:      31 positions{angstrom}  cell{angstrom}
       E  1.79109e+01  3.49919e+01 -3.85126e+00
       E -1.28524e+01  6.01620e+00  5.65516e+01
       E  2.15376e+01 -4.90120e+01 -1.26542e+01
3
# CELL(abcABC): 1322.94304  1322.94304  1322.94304    90.00000    90.00000    90.00000  Step:        9300  Bead:      31 positions{angstrom}  cell{angstrom}
       E  4.27487e+01  6.07514e+01 -6.92593e+01
       E -6.85682e+00 -5.82828e+01  4.71213e+01
       E  7.25800e+01 -1.26545e+01  1.24736e+01
3
# CELL(abcABC): 1322.94304  1322.94304  1322.94304    90.00000    90.00000    90.00000  Step:        9400  Bead:      31 positions{angstrom}  cell{angstrom}
       E  2.82332e+01  3.53576e+01 -3.79300e+01
       E  5.20236e+00 -5.44797e+01  9.77342e+00
       E  1.42175e+01  5.14103e-01 -9.53663e+00
3
# CELL(abcABC): 1322.94304  1322.94304  1322.94304    90.00000    90.00000    90.00000  Step:        9500  Bead:      31 positions{angstrom}  cell{angstrom}
       E  1.99141e+01  1.06808e+01 -3.15015e+01
       E  8.11599e+00 -2.52911e+01  3.37358e+01
       E -2.57801e+00 -1.65212e+01 -1.91423e+01
3
# CELL(abcABC): 1322.94304  1322.94304  1322.94304    90.00000    90.00000    90.00000  Step:        9600  Bead:      31 positions{angstrom}  cell{angstrom}
       E -1.10587e+01 -6.15792e+00 -4.98971e+01
       E  2.74241e+01 -2.71683e+01  1.52824e+01
       E -7.03027e+00 -3.49636e+01 -1.22885e+01
3
# CELL(abcABC): 1322.94304  1322.94304  1322.94304    90.00000    90.00000    90.00000  Step:        9700  Bead:      31 positions{angstrom}  cell{angstrom}
       E -4.67024e+01 -7.05023e+01 -5.83262e+01
       E  5.04613e+01 -5.63333e+01 -2.45950e+01
       E -2.50070e+01 -4.48845e+00 -1.47951e+01
3
# CELL(abcABC): 1322.94304  1322.94304  1322.94304    90.00000    90.00000    90.00000  Step:        9800  Bead:      31 positions{angstrom}  cell{angstrom}
       E -1.19584e+01 -6.87862e+01 -6.58863e+01
       E  3.86646e+01 -7.99394e+01 -2.55123e+01
       E  1.78942e+00 -2.16101e+01 -9.39544e-01
3