3
# CELL(abcABC): 1322.94304  1322.94304  1322.94304    90.00000    90.00000    90.00000  Step:           0  Bead:      14 positions{angstrom}  cell{angstrom}
       E  0.00000e+00  0.00000e+00  0.00000e+00
       E  0.00000e+00  0.00000e+00  0.00000e+00
       E  0.00000e+00  0.00000e+00  0.00000e+00
3
# CELL(abcABC): 1322.94304  1322.94304  1322.94304    90.00000    90.00000    90.00000  Step:         100  Bead:      14 positions{angstrom}  cell{angstrom}
       E  1.00743e+01 -4.21897e+00  2.22039e+01
       E  3.87987e+01 -1.47761e+01 -9.84635e+00
       E -1.65321e+01  1.59409e+01 -2.77506e+01
3
# CELL(abcABC): 1322.94304  1322.94304  1322.94304    90.00000    90.00000    90.00000  Step:         200  Bead:      14 positions{angstrom}  cell{angstrom}
       E  8.31596e+00  2.26304e+01 -6.64674e+00
       E  1.82019e+01 -3.04277e+01 -2.18769e+01
       E -2.76852e+01  8.25897e+00 -4.07270e+00
3
# CELL(abcABC): 1322.94304  1322.94304  1322.94304    90.00000    90.00000    90.00000  Step:         300  Bead:      14 positions{angstrom}  cell{angstrom}
       E -1.77494e+01  3.34043e+01  5.08608e+00
       E  1.51499e+01 -6.44730e+00 -3.00508e+01
       E -2.96332e+01  3.15736e+01  1.35585e+01
3
# CELL(abcABC): 1322.94304  1322.94304  1322.94304    90.00000    90.00000    90.00000  Step:         400  Bead:      14 positions{angstrom}  cell{angstrom}
       E -3.61609e+01  3.46755e+01  2.63283e+01
       E  3.26673e+01  2.19878e+01 -7.79791e+00
       E -2.33405e+01  1.78350e+01  2.96971e+01
3
# CELL(abcABC): 1322.94304  1322.94304  1322.94304    90.00000    90.00000    90.00000  Step:         500  Bead:      14 positions{angstrom}  cell{angstrom}
       E -3.75531e+01  2.38275e+01  5.27000e+00
       E  6.95666e+01  2.80342e+01 -1.34054e+01
       E  1.67236e+01  1.50158e+01  2.84089e+01
3
# CELL(abcABC): 1322.94304  1322.94304  1322.94304    90.00000    90.00000    90.00000  Step:         600  Bead:      14 positions{angstrom}  cell{angstrom}
       E -1.17501e+01  5.58980e+00 -3.66948e+01
       E  3.68508e+01 -1.16176e+01  1.63518e+01
       E  7.20090e-01 -6.96698e+00  1.45312e+01
3
# CELL(abcABC): 1322.94304  1322.94304  1322.94304    90.00000    90.00000    90.00000  Step:         700  Bead:      14 positions{angstrom}  cell{angstrom}
       E -4.38153e+01  2.16022e+01 -3.41060e+01
       E  1.05524e+01  4.22825e+01  2.51380e+01
       E -1.76063e+00  2.14458e+01  9.31708e+00
3
# CELL(abcABC): 1322.94304  1322.94304  1322.94304    90.00000    90.00000    90.00000  Step:         800  Bead:      14 positions{angstrom}  cell{angstrom}
       E -2.16953e+01  3.32709e+01  2.81389e+01
       E  4.89441e-01  4.24010e+01 -2.46492e+00
       E -2.45121e+01  5.18650e-01  2.84291e+01
3
# CELL(abcABC): 1322.94304  1322.94304  1322.94304    90.00000    90.00000    90.00000  Step:         900  Bead:      14 positions{angstrom}  cell{angstrom}
       E  6.39589e-01  9.53013e+00 -8.20526e+00
       E  2.01187e+01  2.58084e+01 -1.78561e+01
       E -2.06617e+01  3.44367e+00  5.16950e+01
3
# CELL(abcABC): 1322.94304  1322.94304  1322.94304    90.00000    90.00000    90.00000  Step:        1000  Bead:      14 positions{angstrom}  cell{angstrom}
       E  2.28293e+00  5.66442e+00 -3.39079e+01
       E  1.99569e+01 -8.33964e+00 -4.52006e+01
       E -2.35761e+01 -1.06447e+01  6.47042e+01
3
# CELL(abcABC): 1322.94304  1322.94304  1322.94304    90.00000    90.00000    90.00000  Step:        1100  Bead:      14 positions{angstrom}  cell{angstrom}
       E  3.10422e+01 -2.19593e+01 -2.33162e+01
       E -1.23301e+00  4.06267e+00 -5.48680e+01
       E -2.21873e+01  6.05161e+01  2.87000e+01
3
# CELL(abcABC): 1322.94304  1322.94304  1322.94304    90.00000    90.00000    90.00000  Step:        1200  Bead:      14 positions{angstrom}  cell{angstrom}
       E -3.05617e-01  1.69651e+01 -6.51534e+01
       E  7.31074e+00 -3.59615e+01 -1.16826e+01
       E  8.35844e+00  4.14982e+01  5.87051e+01
3
# CELL(abcABC): 1322.94304  1322.94304  1322.94304    90.00000    90.00000    90.00000  Step:        1300  Bead:      14 positions{angstrom}  cell{angstrom}
       E -4.98464e+00  1.16308e+01 -5.92120e+01
       E  5.51620e+01 -1.25321e+01 -3.89284e+01
       E -8.53706e+00  9.61637e+00  2.30450e+01
3
# CELL(abcABC): 1322.94304  1322.94304  1322.94304    90.00000    90.00000    90.00000  Step:        1400  Bead:      14 positions{angstrom}  cell{angstrom}
       E  1.56039e+01  5.17775e+01 -8.50736e+01
       E  3.43396e+00 -2.14252e+01 -4.40780e+01
       E  3.42950e-01  1.87601e+00  1.94754e+00
3
# CELL(abcABC): 1322.94304  1322.94304  1322.94304    90.00000    90.00000    90.00000  Step:        1500  Bead:      14 positions{angstrom}  cell{angstrom}
       E -2.59410e+01  4.08843e+01 -5.09239e+01
       E -3.60210e-01 -2.48075e+01 -3.51410e+01
       E -3.28915e+01  2.55212e+01  5.00044e+01
3
# CELL(abcABC): 1322.94304  1322.94304  1322.94304    90.00000    90.00000    90.00000  Step:        1600  Bead:      14 positions{angstrom}  cell{angstrom}
       E -7.68611e+00  6.53693e+01 -5.23285e+01
       E  6.54755e+00  5.15349e+01 -2.24962e+01
       E -4.08924e+01  3.38530e+01  4.55357e+01
3
# CELL(abcABC): 1322.94304  1322.94304  1322.94304    90.00000    90.00000    90.00000  Step:        1700  Bead:      14 positions{angstrom}  cell{angstrom}
       E  3.43912e+00  2.44343e+01  2.13420e+01
       E -2.57204e+00  7.36841e+01  3.48211e+00
       E -3.57157e+01  4.34632e+01  2.86857e+01
3
# CELL(abcABC): 1322.94304  1322.94304  1322.94304    90.00000    90.00000    90.00000  Step:        1800  Bead:      14 positions{angstrom}  cell{angstrom}
       E  1.45349e+01  4.39263e+01  1.97779e+01
       E -4.51275e+01  5.69061e+01  1.21380e+01
       E -8.65462e+01  7.21717e+01  2.52292e+01
3
# CELL(abcABC): 1322.94304  1322.94304  1322.94304    90.00000    90.00000    90.00000  Step:        1900  Bead:      14 positions{angstrom}  cell{angstrom}
       E  4.17463e+00  1.57536e+01  5.18345e+01
       E -6.87907e+01  4.39851e+01 -5.02004e+00
       E -3.28079e+01  6.30656e+01  4.56145e+01
3
# CELL(abcABC): 1322.94304  1322.94304  1322.94304    90.00000    90.00000    90.00000  Step:        2000  Bead:      14 positions{angstrom}  cell{angstrom}
       E -3.45523e+01 -6.55258e-01  3.86711e+01
       E -4.99252e+01  3.30415e+01  1.89026e+01
       E -8.39512e+01  1.08580e+02  4.05931e+01
3
# CELL(abcABC): 1322.94304  1322.94304  1322.94304    90.00000    90.00000    90.00000  Step:        2100  Bead:      14 positions{angstrom}  cell{angstrom}
       E -3.90763e+01 -4.41211e+01  5.56816e+01
       E -3.66611e+01  3.63161e+01 -1.39884e+01
       E -6.67449e+01  7.07327e+01  3.60401e+01
3
# CELL(abcABC): 1322.94304  1322.94304  1322.94304    90.00000    90.00000    90.00000  Step:        2200  Bead:      14 positions{angstrom}  cell{angstrom}
       E -3.97236e+01 -2.99584e+01  5.64363e+01
       E -1.55753e+01 -3.44841e+01 -1.02384e+01
       E -4.28573e+01  4.54641e+01  1.92121e+01
3
# CELL(abcABC): 1322.94304  1322.94304  1322.94304    90.00000    90.00000    90.00000  Step:        2300  Bead:      14 positions{angstrom}  cell{angstrom}
       E -6.35979e+01 -1.93820e+01  4.36051e+01
       E -1.73327e+01 -3.46722e+01  1.16365e+01
       E -1.90621e+01  8.44234e+00  5.11451e+01
3
# CELL(abcABC): 1322.94304  1322.94304  1322.94304    90.00000    90.00000    90.00000  Step:        2400  Bead:      14 positions{angstrom}  cell{angstrom}
       E -5.53894e+01 -1.56739e+01  4.11298e+01
       E  1.13176e+01 -1.24066e+01 -1.17948e+01
       E  2.31401e+01  5.60589e+00  3.71216e+01
3
# CELL(abcABC): 1322.94304  1322.94304  1322.94304    90.00000    90.00000    90.00000  Step:        2500  Bead:      14 positions{angstrom}  cell{angstrom}
       E -3.92923e+01  8.68244e+00  3.41311e+01
       E  2.54973e+00 -5.36327e+01 -6.40342e+01
       E  1.61883e+01 -1.43803e+01  2.08600e+01
3
# CELL(abcABC): 1322.94304  1322.94304  1322.94304    90.00000    90.00000    90.00000  Step:        2600  Bead:      14 positions{angstrom}  cell{angstrom}
       E -2.06974e+01  6.72691e+00  4.17815e+01
       E -4.61600e+01 -4.98852e+01 -4.02353e+01
       E  1.73507e+01 -3.64102e+01  2.55897e+01
3
# CELL(abcABC): 1322.94304  1322.94304  1322.94304    90.00000    90.00000    90.00000  Step:        2700  Bead:      14 positions{angstrom}  cell{angstrom}
       E -2.61690e+01  3.42168e+01  1.66027e+01
       E -2.98261e+01 -3.40649e+01 -1.77116e+01
       E  1.75116e+01 -2.45849e+01  3.15657e+01
3
# CELL(abcABC): 1322.94304  1322.94304  1322.94304    90.00000    90.00000    90.00000  Step:        2800  Bead:      14 positions{angstrom}  cell{angstrom}
       E -1.20573e+01 -3.26247e+01  2.60164e+01
       E -5.81332e+01 -4.70582e+01 -2.04567e+01
       E  3.28663e+01 -2.00630e+01  4.88211e+01
3
# CELL(abcABC): 1322.94304  1322.94304  1322.94304    90.00000    90.00000    90.00000  Step:        2900  Bead:      14 positions{angstrom}  cell{angstrom}
       E -3.88619e+01 -3.37072e+00  7.83656e+00
       E -4.45090e+01 -8.66290e+01 -3.88573e+01
       E -9.56074e+00  3.42842e+00  3.15409e+01
3
# CELL(abcABC): 1322.94304  1322.94304  1322.94304    90.00000    90.00000    90.00000  Step:        3000  Bead:      14 positions{angstrom}  cell{angstrom}
       E -2.76218e+01 -1.46049e+00  1.46001e+01
       E -5.97785e+01 -8.65916e+01  4.42970e+00
       E -1.91892e+01  2.70371e+01  3.07958e+00
3
# CELL(abcABC): 1322.94304  1322.94304  1322.94304    90.00000    90.00000    90.00000  Step:        3100  Bead:      14 positions{angstrom}  cell{angstrom}
       E  1.05028e+01 -9.37726e+00  1.97966e+01
       E -7.13170e+01 -5.73989e+01  3.95226e+01
       E -7.39527e+00  3.74346e+01  4.48636e+01
3
# CELL(abcABC): 1322.94304  1322.94304  1322.94304    90.00000    90.00000    90.00000  Step:        3200  Bead:      14 positions{angstrom}  cell{angstrom}
       E  2.74881e+01  1.34591e+00  9.75640e+00
       E -1.00381e+02 -6.33501e+01  5.14510e+01
       E  3.17061e+01  5.57085e+01  3.53424e+01
3
# CELL(abcABC): 1322.94304  1322.94304  1322.94304    90.00000    90.00000    90.00000  Step:        3300  Bead:      14 positions{angstrom}  cell{angstrom}
       E  8.22737e+00 -1.65647e+01 -1.73932e+01
       E -8.71443e+01 -3.26663e+01  6.82902e+01
       E -4.09681e+01  5.84880e+01  5.53938e+01
3
# CELL(abcABC): 1322.94304  1322.94304  1322.94304    90.00000    90.00000    90.00000  Step:        3400  Bead:      14 positions{angstrom}  cell{angstrom}
       E -1.51290e+00  3.09619e+01  3.56499e+00
       E -8.40005e+01 -3.98985e+01  9.64833e+01
       E -2.01365e+01  6.34415e+01  4.26287e+01
3
# CELL(abcABC): 1322.94304  1322.94304  1322.94304    90.00000    90.00000    90.00000  Step:        3500  Bead:      14 positions{angstrom}  cell{angstrom}
       E -2.15055e+01  4.31222e+01  3.57674e+01
       E -4.19775e+01 -2.84632e+01  2.13769e+01
       E -4.07303e+01  3.99979e+01  4.17775e+01
3
# CELL(abcABC): 1322.94304  1322.94304  1322.94304    90.00000    90.00000    90.00000  Step:        3600  Bead:      14 positions{angstrom}  cell{angstrom}
       E -2.45960e+01  3.37224e+01  3.66583e+01
       E -1.17691e+01  1.67142e+00  1.74319e+01
       E  2.19177e-01  4.21850e+01  1.29428e+01
3
# CELL(abcABC): 1322.94304  1322.94304  1322.94304    90.00000    90.00000    90.00000  Step:        3700  Bead:      14 positions{angstrom}  cell{angstrom}
       E -5.04868e+01  1.35340e+01 -1.89055e+01
       E -2.57723e+01 -3.18629e+01  1.18235e+01
       E -5.23582e+01 -1.73679e+00 -7.11154e+00
3
# CELL(abcABC): 1322.94304  1322.94304  1322.94304    90.00000    90.00000    90.00000  Step:        3800  Bead:      14 positions{angstrom}  cell{angstrom}
       E -6.93728e+01 -1.75113e+01 -3.22655e+01
       E -2.45234e+01 -3.69390e+01 -2.10488e+01
       E -6.94965e+01  8.10417e+00 -1.53740e+01
3
# CELL(abcABC): 1322.94304  1322.94304  1322.94304    90.00000    90.00000    90.00000  Step:        3900  Bead:      14 positions{angstrom}  cell{angstrom}
       E -9.41463e+01  2.64724e+01 -3.21397e+01
       E -1.49445e+01 -1.14375e+01 -8.00879e+00
       E -4.82246e+01  2.47816e+01 -4.53021e+00
3
# CELL(abcABC): 1322.94304  1322.94304  1322.94304    90.00000    90.00000    90.00000  Step:        4000  Bead:      14 positions{angstrom}  cell{angstrom}
       E -8.23970e+01  5.83824e+01 -5.99962e+01
       E -3.37589e+01  1.21311e+01  3.34922e+01
       E -3.94072e+01  3.16632e+01  5.03132e+00
3
# CELL(abcABC): 1322.94304  1322.94304  1322.94304    90.00000    90.00000    90.00000  Step:        4100  Bead:      14 positions{angstrom}  cell{angstrom}
       E -5.14054e+01  5.66129e+01 -6.74553e+01
       E -2.55797e+01  3.38403e+01  3.60563e+01
       E -3.00491e+01  1.05857e+01  3.22275e+01
3
# CELL(abcABC): 1322.94304  1322.94304  1322.94304    90.00000    90.00000    90.00000  Step:        4200  Bead:      14 positions{angstrom}  cell{angstrom}
       E -9.35179e+00  4.05588e+01 -6.64696e+01
       E -2.36412e+01  3.74354e+01  5.55216e+01
       E  2.68981e-01  1.50138e+01  6.08462e+01
3
# CELL(abcABC): 1322.94304  1322.94304  1322.94304    90.00000    90.00000    90.00000  Step:        4300  Bead:      14 positions{angstrom}  cell{angstrom}
       E -7.25766e+01  3.81745e+01 -5.72191e+01
       E -6.08402e+01  5.51150e+01  6.69845e+01
       E -2.74570e+01  1.80305e+01  4.36681e+01
3
# CELL(abcABC): 1322.94304  1322.94304  1322.94304    90.00000    90.00000    90.00000  Step:        4400  Bead:      14 positions{angstrom}  cell{angstrom}
       E -4.80078e+01  7.37173e+00 -7.24839e+01
       E -2.45905e+01  7.33007e+01  2.33357e+01
       E -3.70999e+01 -2.39055e+01 -1.46883e+01
3
# CELL(abcABC): 1322.94304  1322.94304  1322.94304    90.00000    90.00000    90.00000  Step:        4500  Bead:      14 positions{angstrom}  cell{angstrom}
       E -6.17292e+01 -7.63337e-01 -9.46770e+01
       E -7.12282e+01  1.02308e+02  5.39288e+00
       E -2.05836e+01 -2.00499e+01  3.11794e+01
3
# CELL(abcABC): 1322.94304  1322.94304  1322.94304    90.00000    90.00000    90.00000  Step:        4600  Bead:      14 positions{angstrom}  cell{angstrom}
       E -1.42126e+00 -1.68599e+00 -1.02494e+02
       E -4.94922e+01  6.86400e+01 -1.06179e+01
       E -4.73462e+00 -1.59621e+01  1.85398e+01
3
# CELL(abcABC): 1322.94304  1322.94304  1322.94304    90.00000    90.00000    90.00000  Step:        4700  Bead:      14 positions{angstrom}  cell{angstrom}
       E -8.42675e-01  3.19090e+01 -3.92165e+01
       E -6.46719e+01  4.80656e+01 -2.35689e+01
       E  4.56786e+01 -9.18665e+00  6.76416e+00
3
# CELL(abcABC): 1322.94304  1322.94304  1322.94304    90.00000    90.00000    90.00000  Step:        4800  Bead:      14 positions{angstrom}  cell{angstrom}
       E  1.11272e+01  3.36992e+01 -2.29778e+01
       E -5.38844e+01  2.62524e+01 -1.51173e+01
       E  5.42173e+01 -1.41275e+00  7.92253e+00
3
# CELL(abcABC): 1322.94304  1322.94304  1322.94304    90.00000    90.00000    90.00000  Step:        4900  Bead:      14 positions{angstrom}  cell{angstrom}
       E  7.78834e+00  2.05404e+01  2.03690e+01
       E -4.16796e+01  2.54321e+01 -1.62108e+01
       E  2.59262e+01  1.85969e+00 -7.53813e-01
3
# CELL(abcABC): 1322.94304  1322.94304  1322.94304    90.00000    90.00000    90.00000  Step:        5000  Bead:      14 positions{angstrom}  cell{angstrom}
       E -5.26257e+00  1.16122e+01 -6.92951e-01
       E -2.39599e+01 -5.18511e+00 -5.26531e+01
       E  1.56425e+01 -3.99999e+01 -1.51186e+01
3
# CELL(abcABC): 1322.94304  1322.94304  1322.94304    90.00000    90.00000    90.00000  Step:        5100  Bead:      14 positions{angstrom}  cell{angstrom}
       E -1.55274e+01  3.10663e+01  3.63045e+00
       E -3.42539e+01  2.09917e+01 -2.37304e+01
       E -1.11515e+01 -1.64520e+01 -2.17694e+01
3
# CELL(abcABC): 1322.94304  1322.94304  1322.94304    90.00000    90.00000    90.00000  Step:        5200  Bead:      14 positions{angstrom}  cell{angstrom}
       E  1.84796e+01  3.92600e+01  3.31150e+01
       E -2.78921e+01  2.02513e+01 -2.43545e+01
       E -2.01379e+01  2.64908e+01  4.73990e+00
3
# CELL(abcABC): 1322.94304  1322.94304  1322.94304    90.00000    90.00000    90.00000  Step:        5300  Bead:      14 positions{angstrom}  cell{angstrom}
       E  1.99863e+00  3.05765e+01  5.71595e+01
       E -4.87153e+01  3.50011e+01 -3.09373e+00
       E -1.39620e+01  3.41713e+01  3.15549e+01
3
# CELL(abcABC): 1322.94304  1322.94304  1322.94304    90.00000    90.00000    90.00000  Step:        5400  Bead:      14 positions{angstrom}  cell{angstrom}
       E  1.13649e+01 -4.55563e+00  3.70661e+01
       E -1.61775e+01  1.59125e+01 -2.36063e+01
       E -2.79356e+01  5.15431e+01  4.60075e+01
3
# CELL(abcABC): 1322.94304  1322.94304  1322.94304    90.00000    90.00000    90.00000  Step:        5500  Bead:      14 positions{angstrom}  cell{angstrom}
       E  2.24189e+01  1.80338e+01  3.15690e+01
       E -3.16066e+01 -1.92655e+01 -1.14597e+01
       E -2.66677e+01  2.42649e+00  4.67143e+01
3
# CELL(abcABC): 1322.94304  1322.94304  1322.94304    90.00000    90.00000    90.00000  Step:        5600  Bead:      14 positions{angstrom}  cell{angstrom}
       E -1.06227e+01  2.48710e+01  1.84750e+01
       E -2.78589e+01  3.55406e+00 -1.74729e+01
       E -3.65319e+01 -9.29346e+00  1.37028e+01
3
# CELL(abcABC): 1322.94304  1322.94304  1322.94304    90.00000    90.00000    90.00000  Step:        5700  Bead:      14 positions{angstrom}  cell{angstrom}
       E -3.47115e+00 -1.33200e+01  1.05488e+01
       E -3.14872e+01  5.07983e+01  1.09215e+01
       E -3.98828e+01  2.11227e+01  2.63488e+01
3
# CELL(abcABC): 1322.94304  1322.94304  1322.94304    90.00000    90.00000    90.00000  Step:        5800  Bead:      14 positions{angstrom}  cell{angstrom}
       E  5.47720e-01 -3.88104e+00 -1.68435e+01
       E -4.89690e+01  3.72025e+01 -3.71134e+01
       E -1.05130e+01  1.46372e+01 -6.55184e+00
3
# CELL(abcABC): 1322.94304  1322.94304  1322.94304    90.00000    90.00000    90.00000  Step:        5900  Bead:      14 positions{angstrom}  cell{angstrom}
       E  5.55934e+00  6.82366e+00 -2.33344e+01
       E -2.21195e+01  1.33278e+01 -5.71027e+00
       E -4.08472e+00 -1.14978e+01 -3.69654e+00
3
# CELL(abcABC): 1322.94304  1322.94304  1322.94304    90.00000    90.00000    90.00000  Step:        6000  Bead:      14 positions{angstrom}  cell{angstrom}
       E  3.14366e+01  1.68459e+01 -2.12991e+00
       E -1.01546e+01  1.01151e+01  1.52274e+01
       E -1.90973e+01  7.76507e+00  7.40857e+00
3
# CELL(abcABC): 1322.94304  1322.94304  1322.94304    90.00000    90.00000    90.00000  Step:        6100  Bead:      14 positions{angstrom}  cell{angstrom}
       E -2.53421e+01 -4.35374e+01 -2.78598e+01
       E  2.25237e+01  2.57295e+01  3.43483e+01
       E -2.24694e+01 -1.42036e-01 -2.35582e+00
3
# CELL(abcABC): 1322.94304  1322.94304  1322.94304    90.00000    90.00000    90.00000  Step:        6200  Bead:      14 positions{angstrom}  cell{angstrom}
       E  1.31427e+01  7.16055e+00 -7.39562e+01
       E  6.09663e+01  4.33011e+01 -1.09610e+00
       E  1.20981e+01 -8.45308e+00 -3.95712e+00
3
# CELL(abcABC): 1322.94304  1322.94304  1322.94304    90.00000    90.00000    90.00000  Step:        6300  Bead:      14 positions{angstrom}  cell{angstrom}
       E  4.65816e-01 -4.77247e+01 -9.37830e+01
       E  9.75042e+01  7.80705e+00 -1.26635e+01
       E  1.18924e+01 -2.83253e+01 -1.74167e+01
3
# CELL(abcABC): 1322.94304  1322.94304  1322.94304    90.00000    90.00000    90.00000  Step:        6400  Bead:      14 positions{angstrom}  cell{angstrom}
       E -1.72554e+00 -6.71840e+01 -7.19072e+01
       E  7.43974e+01  3.22626e+01 -1.38448e+01
       E -4.51819e+00  5.52930e+00 -1.17156e+01
3
# CELL(abcABC): 1322.94304  1322.94304  1322.94304    90.00000    90.00000    90.00000  Step:        6500  Bead:      14 positions{angstrom}  cell{angstrom}
       E -1.55586e+01 -7.11780e+01 -8.68974e+01
       E  1.10546e+01  1.47504e+01 -1.92053e+01
       E  1.15644e+01 -2.62857e+01  2.01096e+00
3
# CELL(abcABC): 1322.94304  1322.94304  1322.94304    90.00000    90.00000    90.00000  Step:        6600  Bead:      14 positions{angstrom}  cell{angstrom}
       E -7.74590e+00 -6.42855e+01 -9.80589e+01
       E  1.80531e+01 -3.76299e+01 -3.71901e+01
       E  3.15672e+01 -3.08782e+01  3.59051e+00
3
# CELL(abcABC): 1322.94304  1322.94304  1322.94304    90.00000    90.00000    90.00000  Step:        6700  Bead:      14 positions{angstrom}  cell{angstrom}
       E -5.31706e+00 -8.33550e+01 -5.92790e+01
       E  2.92026e+01 -4.94058e+00 -4.89409e+00
       E -5.73812e+00 -4.82811e+00 -1.44759e+01
3
# CELL(abcABC): 1322.94304  1322.94304  1322.94304    90.00000    90.00000    90.00000  Step:        6800  Bead:      14 positions{angstrom}  cell{angstrom}
       E -4.99041e+00 -1.05944e+02 -5.75487e+01
       E  5.23238e+01 -2.00652e+01 -5.03666e+00
       E  2.31772e+01  2.50068e+01  1.23060e+01
3
# CELL(abcABC): 1322.94304  1322.94304  1322.94304    90.00000    90.00000    90.00000  Step:        6900  Bead:      14 positions{angstrom}  cell{angstrom}
       E  2.60315e+00 -6.46974e+01 -5.20694e+01
       E  1.38291e+01 -2.07055e+01 -9.21679e+00
       E -1.56253e+01  4.86520e+01  1.45924e+01
3
# CELL(abcABC): 1322.94304  1322.94304  1322.94304    90.00000    90.00000    90.00000  Step:        7000  Bead:      14 positions{angstrom}  cell{angstrom}
       E  3.73249e+01 -7.86670e+01 -3.06731e+01
       E  7.20594e+00 -2.88968e+01  3.19889e+01
       E -7.65730e+00  5.77451e+01  2.86040e+01
3
# CELL(abcABC): 1322.94304  1322.94304  1322.94304    90.00000    90.00000    90.00000  Step:        7100  Bead:      14 positions{angstrom}  cell{angstrom}
       E  3.40780e+01 -4.27799e+01 -2.27813e+01
       E -3.64753e+01 -1.19250e+01  2.27878e+01
       E  3.03011e+01  5.33743e+01 -8.27855e-01
3
# CELL(abcABC): 1322.94304  1322.94304  1322.94304    90.00000    90.00000    90.00000  Step:        7200  Bead:      14 positions{angstrom}  cell{angstrom}
       E  2.87271e+01 -1.83873e+01 -5.51873e+00
       E -5.03532e+01 -7.57011e+00  3.85010e+01
       E  3.96943e+01  2.31789e+01 -1.95439e+01
3
# CELL(abcABC): 1322.94304  1322.94304  1322.94304    90.00000    90.00000    90.00000  Step:        7300  Bead:      14 positions{angstrom}  cell{angstrom}
       E  2.03194e+01 -3.88372e+01 -3.30243e+01
       E -3.94905e+01  4.19220e+01  3.98323e+01
       E  3.68150e+01  1.67991e+01 -2.10322e+01
3
# CELL(abcABC): 1322.94304  1322.94304  1322.94304    90.00000    90.00000    90.00000  Step:        7400  Bead:      14 positions{angstrom}  cell{angstrom}
       E  3.87025e+01 -2.90125e+01 -7.77386e+01
       E -4.30037e+01  2.63448e+01  7.40280e+00
       E  3.86986e+01  4.03565e+01 -1.89163e+01
3
# CELL(abcABC): 1322.94304  1322.94304  1322.94304    90.00000    90.00000    90.00000  Step:        7500  Bead:      14 positions{angstrom}  cell{angstrom}
       E  2.55074e-01 -7.79323e+01 -3.86633e+01
       E -5.83196e+01  5.47762e-01  6.27014e+00
       E  4.91078e+01  3.87028e+01  2.88819e-01
3
# CELL(abcABC): 1322.94304  1322.94304  1322.94304    90.00000    90.00000    90.00000  Step:        7600  Bead:      14 positions{angstrom}  cell{angstrom}
       E  1.68559e+01 -6.18320e+01 -4.61273e+01
       E -1.51504e+01 -3.08079e+01 -1.33002e+01
       E  5.36065e+01  3.15909e+01 -1.68405e+01
3
# CELL(abcABC): 1322.94304  1322.94304  1322.94304    90.00000    90.00000    90.00000  Step:        7700  Bead:      14 positions{angstrom}  cell{angstrom}
       E  3.50888e+01 -8.62382e+01 -1.34990e+01
       E -1.71244e+01 -4.45348e+01 -5.29157e+01
       E  4.06214e+01  4.77773e+01 -3.79364e+01
3
# CELL(abcABC): 1322.94304  1322.94304  1322.94304    90.00000    90.00000    90.00000  Step:        7800  Bead:      14 positions{angstrom}  cell{angstrom}
       E -5.03751e+00 -7.60240e+01 -5.77411e+01
       E -1.16810e+01 -5.09788e+01 -2.47464e+01
       E  3.98901e+01  4.51054e+01 -5.38988e+01
3
# CELL(abcABC): 1322.94304  1322.94304  1322.94304    90.00000    90.00000    90.00000  Step:        7900  Bead:      14 positions{angstrom}  cell{angstrom}
       E  2.56540e+01 -3.69838e+01 -3.98020e+01
       E  2.27561e+00 -8.67555e+00 -2.54729e+01
       E  2.03957e+01  4.69152e+00 -3.81985e+01
3
# CELL(abcABC): 1322.94304  1322.94304  1322.94304    90.00000    90.00000    90.00000  Step:        8000  Bead:      14 positions{angstrom}  cell{angstrom}
       E  1.71265e+01 -4.10611e+01 -6.32710e+01
       E -3.38937e+01  3.11599e+01 -8.38726e+00
       E  2.36612e+01 -5.65736e+00 -4.52910e+01
3
# CELL(abcABC): 1322.94304  1322.94304  1322.94304    90.00000    90.00000    90.00000  Step:        8100  Bead:      14 positions{angstrom}  cell{angstrom}
       E -1.44686e+00  1.36275e+01 -5.17143e+01
       E -6.70213e+00  1.82930e+01 -1.65145e+01
       E  1.19307e+01 -1.24878e+00 -5.95541e+00
3
# CELL(abcABC): 1322.94304  1322.94304  1322.94304    90.00000    90.00000    90.00000  Step:        8200  Bead:      14 positions{angstrom}  cell{angstrom}
       E  1.65882e+01  4.32690e+01 -5.01275e+01
       E -2.77951e+01  7.77746e-01 -3.09834e+01
       E  9.32256e+00 -1.21320e+01  3.20076e+01
3
# CELL(abcABC): 1322.94304  1322.94304  1322.94304    90.00000    90.00000    90.00000  Step:        8300  Bead:      14 positions{angstrom}  cell{angstrom}
       E  3.57411e+01  4.26994e+01 -5.30745e+01
       E -1.41358e+01  4.30887e+01  6.67710e+00
       E  3.65721e+01 -5.66620e+01  7.85502e+01
3
# CELL(abcABC): 1322.94304  1322.94304  1322.94304    90.00000    90.00000    90.00000  Step:        8400  Bead:      14 positions{angstrom}  cell{angstrom}
       E -5.04702e+00  3.35544e+00 -1.58006e+01
       E  1.42933e+01  3.15743e+01 -2.79047e+01
       E  9.11323e+00 -3.63402e+01  6.74343e+01
3
# CELL(abcABC): 1322.94304  1322.94304  1322.94304    90.00000    90.00000    90.00000  Step:        8500  Bead:      14 positions{angstrom}  cell{angstrom}
       E -5.40690e+00  7.23912e+00 -9.37854e+00
       E  5.98585e+01  1.86405e+01 -1.46673e+01
       E  1.60667e+01 -2.24448e+01  3.23537e+01
3
# CELL(abcABC): 1322.94304  1322.94304  1322.94304    90.00000    90.00000    90.00000  Step:        8600  Bead:      14 positions{angstrom}  cell{angstrom}
       E -1.52237e+01 -8.00548e+00 -1.82862e+01
       E  1.07164e+01  8.16693e+00 -4.52567e+01
       E  5.53133e+00 -1.07612e+01  2.12529e+01
3
# CELL(abcABC): 1322.94304  1322.94304  1322.94304    90.00000    90.00000    90.00000  Step:        8700  Bead:      14 positions{angstrom}  cell{angstrom}
       E -1.47336e+01 -1.15523e+01 -1.09619e+01
       E  1.54406e+01  2.85724e+01 -4.43543e+01
       E  1.28675e+00 -3.85534e+01  5.38445e+01
3
# CELL(abcABC): 1322.94304  1322.94304  1322.94304    90.00000    90.00000    90.00000  Step:        8800  Bead:      14 positions{angstrom}  cell{angstrom}
       E -4.73463e+01  1.19134e+01  3.56143e+01
       E  1.13332e+01 -7.62346e-01  6.30471e+00
       E  3.21891e+01 -6.18715e+01  3.24187e+01
3
# CELL(abcABC): 1322.94304  1322.94304  1322.94304    90.00000    90.00000    90.00000  Step:        8900  Bead:      14 positions{angstrom}  cell{angstrom}
       E -4.55268e+01  5.62818e+01  3.85088e+01
       E -1.01519e+01 -1.54945e+00  1.52094e+01
       E  3.08164e+01 -3.88558e+01  5.03988e+01
3
# CELL(abcABC): 1322.94304  1322.94304  1322.94304    90.00000    90.00000    90.00000  Step:        9000  Bead:      14 positions{angstrom}  cell{angstrom}
       E -2.81764e+01  4.47096e+01  1.86960e+01
       E -8.01895e+00 -2.24158e+00  4.89911e+01
       E  3.83169e+01 -8.20744e+00  2.50204e+01
3
# CELL(abcABC): 1322.94304  1322.94304  1322.94304    90.00000    90.00000    90.00000  Step:        9100  Bead:      14 positions{angstrom}  cell{angstrom}
       E  1.50709e+01  1.43457e+01  3.34713e+01
       E -3.29346e+01  1.89804e+01  8.33756e+01
       E  2.75164e+01 -1.63716e+01  4.76033e+01
3
# CELL(abcABC): 1322.94304  1322.94304  1322.94304    90.00000    90.00000    90.00000  Step:        9200  Bead:      14 positions{angstrom}  cell{angstrom}
       E  4.56779e+01  2.60105e+01  1.94263e+01
       E -3.28023e+01  3.15739e+00  5.72081e+01
       E  1.38255e+01 -6.72006e+01  1.13534e+01
3
# CELL(abcABC): 1322.94304  1322.94304  1322.94304    90.00000    90.00000    90.00000  Step:        9300  Bead:      14 positions{angstrom}  cell{angstrom}
       E  1.36430e+01  3.31324e+01 -1.91203e+00
       E -4.17391e+01 -1.44331e+01  1.32722e+01
       E  3.93535e+00 -6.74464e+01 -1.07201e+01
3
# CELL(abcABC): 1322.94304  1322.94304  1322.94304    90.00000    90.00000    90.00000  Step:        9400  Bead:      14 positions{angstrom}  cell{angstrom}
       E  3.25325e+01  7.80383e+01 -3.19153e+01
       E -4.20326e+01 -3.38965e+01 -9.83037e-01
       E  3.49578e+01 -3.99557e+01 -2.04521e+01
3
# CELL(abcABC): 1322.94304  1322.94304  1322.94304    90.00000    90.00000    90.00000  Step:        9500  Bead:      14 positions{angstrom}  cell{angstrom}
       E  1.78611e+01  5.00918e+01 -6.88398e+01
       E -8.06667e+00 -4.73801e+01  3.52735e+01
       E  4.26834e+01 -3.35185e+01  2.90474e+01
3
# CELL(abcABC): 1322.94304  1322.94304  1322.94304    90.00000    90.00000    90.00000  Step:        9600  Bead:      14 positions{angstrom}  cell{angstrom}
       E  1.80874e+01  3.44989e+01 -3.86096e+01
       E  3.89177e+01 -3.38604e+01  4.35167e+01
       E  3.83941e+01 -2.41933e+01  3.71850e+01
3
# CELL(abcABC): 1322.94304  1322.94304  1322.94304    90.00000    90.00000    90.00000  Step:        9700  Bead:      14 positions{angstrom}  cell{angstrom}
       E  1.32640e+01 -4.76076e+01 -1.67617e+01
       E  5.66139e+01 -6.75199e+01  2.34249e+01
       E  2.40970e+01  1.60529e+00  6.31403e+00
3
# CELL(abcABC): 1322.94304  1322.94304  1322.94304    90.00000    90.00000    90.00000  Step:        9800  Bead:      14 positions{angstrom}  cell{angstrom}
       E -3.60147e+01 -5.36008e+01 -4.33570e+01
       E  3.61438e+01 -8.60965e+01 -2.35529e+01
       E  3.32234e+01 -1.75862e+01  9.15358e+00
3