3
# CELL(abcABC): 1322.94304  1322.94304  1322.94304    90.00000    90.00000    90.00000  Step:           0  Bead:      15 positions{angstrom}  cell{angstrom}
       E  0.00000e+00  0.00000e+00  0.00000e+00
       E  0.00000e+00  0.00000e+00  0.00000e+00
       E  0.00000e+00  0.00000e+00  0.00000e+00
3
# CELL(abcABC): 1322.94304  1322.94304  1322.94304    90.00000    90.00000    90.00000  Step:         100  Bead:      15 positions{angstrom}  cell{angstrom}
       E  1.07029e+01  1.15456e+01  2.49563e+01
       E  2.87467e+01 -5.03024e+00  8.34623e+00
       E -6.56910e+00 -1.36413e+00 -3.28084e+01
3
# CELL(abcABC): 1322.94304  1322.94304  1322.94304    90.00000    90.00000    90.00000  Step:         200  Bead:      15 positions{angstrom}  cell{angstrom}
       E  6.36324e+00  1.53301e+01  3.90507e+00
       E  2.77115e+01 -3.33895e+01 -3.00695e+01
       E -1.69683e+01  1.17193e+01 -1.54190e+01
3
# CELL(abcABC): 1322.94304  1322.94304  1322.94304    90.00000    90.00000    90.00000  Step:         300  Bead:      15 positions{angstrom}  cell{angstrom}
       E -2.59780e+01  2.83057e+01  1.12834e+01
       E  2.68289e+01 -4.34646e+00 -2.69082e+01
       E -2.05139e+01  3.79923e+01  3.07543e+00
3
# CELL(abcABC): 1322.94304  1322.94304  1322.94304    90.00000    90.00000    90.00000  Step:         400  Bead:      15 positions{angstrom}  cell{angstrom}
       E -2.40190e+01  4.65798e+01  1.97293e+01
       E  2.60253e+01  2.11447e+01 -2.50852e+00
       E -4.98346e+01  2.00296e+01  1.49187e+01
3
# CELL(abcABC): 1322.94304  1322.94304  1322.94304    90.00000    90.00000    90.00000  Step:         500  Bead:      15 positions{angstrom}  cell{angstrom}
       E -4.15304e+01  1.76966e+01  3.17906e+00
       E  4.81878e+01  3.62049e+01 -6.76359e-01
       E -4.24543e+00  1.68681e+01  2.72967e+01
3
# CELL(abcABC): 1322.94304  1322.94304  1322.94304    90.00000    90.00000    90.00000  Step:         600  Bead:      15 positions{angstrom}  cell{angstrom}
       E -1.82774e+01 -7.99070e+00 -2.85643e+01
       E  4.76011e+01 -1.07054e+01  5.11486e+00
       E -4.78770e+00  6.32049e+00 -9.38423e-01
3
# CELL(abcABC): 1322.94304  1322.94304  1322.94304    90.00000    90.00000    90.00000  Step:         700  Bead:      15 positions{angstrom}  cell{angstrom}
       E -2.58054e+01  7.13085e+00 -6.13875e+00
       E  1.06452e+01  4.89993e+01  6.89675e+00
       E -3.30586e+01  1.10137e+01  1.43424e+01
3
# CELL(abcABC): 1322.94304  1322.94304  1322.94304    90.00000    90.00000    90.00000  Step:         800  Bead:      15 positions{angstrom}  cell{angstrom}
       E -5.55048e+00  2.59146e+01  1.73808e+01
       E  6.66850e+00  3.59882e+01  7.11116e+00
       E -2.39669e+01 -1.92925e+01  2.79174e+01
3
# CELL(abcABC): 1322.94304  1322.94304  1322.94304    90.00000    90.00000    90.00000  Step:         900  Bead:      15 positions{angstrom}  cell{angstrom}
       E  3.59856e+00  2.15728e+01 -3.40728e+00
       E  3.14679e+01  3.72220e+01 -7.20232e+00
       E -4.41346e+01 -8.02211e+00  4.78313e+01
3
# CELL(abcABC): 1322.94304  1322.94304  1322.94304    90.00000    90.00000    90.00000  Step:        1000  Bead:      15 positions{angstrom}  cell{angstrom}
       E -7.17215e-02  9.30262e+00 -4.40717e+01
       E  2.43595e+01 -1.22033e+01 -4.77609e+01
       E -3.84222e+01 -2.73865e+01  5.81479e+01
3
# CELL(abcABC): 1322.94304  1322.94304  1322.94304    90.00000    90.00000    90.00000  Step:        1100  Bead:      15 positions{angstrom}  cell{angstrom}
       E  1.19658e+01 -2.00512e+01 -4.38869e+01
       E  3.94324e+00  5.90659e+00 -5.87073e+01
       E -2.98048e+01  5.26955e+01  2.69518e+01
3
# CELL(abcABC): 1322.94304  1322.94304  1322.94304    90.00000    90.00000    90.00000  Step:        1200  Bead:      15 positions{angstrom}  cell{angstrom}
       E  2.99679e+01 -1.44945e-01 -9.25373e+01
       E  2.25900e+01 -4.14458e+01 -2.01602e+01
       E -1.10744e+01  3.69736e+01  4.97317e+01
3
# CELL(abcABC): 1322.94304  1322.94304  1322.94304    90.00000    90.00000    90.00000  Step:        1300  Bead:      15 positions{angstrom}  cell{angstrom}
       E -1.21891e+01  2.44736e+01 -7.90556e+01
       E  5.73973e+01 -2.27519e+01 -4.15329e+01
       E -6.75072e+00 -9.16252e+00  8.59215e+00
3
# CELL(abcABC): 1322.94304  1322.94304  1322.94304    90.00000    90.00000    90.00000  Step:        1400  Bead:      15 positions{angstrom}  cell{angstrom}
       E -8.00902e+00  6.38110e+01 -8.33793e+01
       E  4.16392e+00 -2.56372e+01 -5.37204e+01
       E  1.58711e+01  1.42647e+01  3.46195e+00
3
# CELL(abcABC): 1322.94304  1322.94304  1322.94304    90.00000    90.00000    90.00000  Step:        1500  Bead:      15 positions{angstrom}  cell{angstrom}
       E  8.03524e+00  4.02989e+01 -4.24019e+01
       E -1.04006e+00 -1.64402e+01 -2.75137e+01
       E -5.47942e+00  1.33455e+01  3.79621e+01
3
# CELL(abcABC): 1322.94304  1322.94304  1322.94304    90.00000    90.00000    90.00000  Step:        1600  Bead:      15 positions{angstrom}  cell{angstrom}
       E -2.37446e+01  6.24453e+01 -3.76535e+01
       E  1.98769e+00  5.22944e+01 -3.30313e+01
       E -4.43743e+01  2.85269e+01  4.24629e+01
3
# CELL(abcABC): 1322.94304  1322.94304  1322.94304    90.00000    90.00000    90.00000  Step:        1700  Bead:      15 positions{angstrom}  cell{angstrom}
       E  1.17673e+01  1.74940e+01  3.74339e+01
       E  8.72436e-01  5.97206e+01  8.47950e+00
       E -3.90368e+01  4.81023e+01  3.18922e+01
3
# CELL(abcABC): 1322.94304  1322.94304  1322.94304    90.00000    90.00000    90.00000  Step:        1800  Bead:      15 positions{angstrom}  cell{angstrom}
       E  9.20800e+00  4.07896e+01  6.36108e+00
       E -5.50761e+01  4.14905e+01  2.05091e+01
       E -9.70227e+01  8.54102e+01  2.88286e+01
3
# CELL(abcABC): 1322.94304  1322.94304  1322.94304    90.00000    90.00000    90.00000  Step:        1900  Bead:      15 positions{angstrom}  cell{angstrom}
       E  7.16518e+00  3.02045e+01  3.95359e+01
       E -4.30666e+01  2.01396e+01 -3.14015e+00
       E -2.99505e+01  5.34348e+01  4.96823e+01
3
# CELL(abcABC): 1322.94304  1322.94304  1322.94304    90.00000    90.00000    90.00000  Step:        2000  Bead:      15 positions{angstrom}  cell{angstrom}
       E -4.18537e+01 -1.83495e+01  3.62295e+01
       E -5.49533e+01  5.38752e+01  3.79099e+00
       E -9.42784e+01  8.89374e+01  4.30541e+01
3
# CELL(abcABC): 1322.94304  1322.94304  1322.94304    90.00000    90.00000    90.00000  Step:        2100  Bead:      15 positions{angstrom}  cell{angstrom}
       E -3.55378e+01 -3.24821e+01  7.80588e+01
       E -3.88020e+01  3.77637e+01 -6.52862e+00
       E -6.30399e+01  8.04042e+01  2.15702e+01
3
# CELL(abcABC): 1322.94304  1322.94304  1322.94304    90.00000    90.00000    90.00000  Step:        2200  Bead:      15 positions{angstrom}  cell{angstrom}
       E -3.97145e+01 -1.97109e+01  5.76491e+01
       E -2.35421e+01 -3.17969e+01 -2.25890e+01
       E -4.52358e+01  3.39857e+01  8.62275e+00
3
# CELL(abcABC): 1322.94304  1322.94304  1322.94304    90.00000    90.00000    90.00000  Step:        2300  Bead:      15 positions{angstrom}  cell{angstrom}
       E -6.63472e+01 -3.93320e+01  6.88010e+01
       E -9.50016e-01 -2.25044e+01  7.77343e+00
       E -1.15177e+01  7.95856e+00  4.54600e+01
3
# CELL(abcABC): 1322.94304  1322.94304  1322.94304    90.00000    90.00000    90.00000  Step:        2400  Bead:      15 positions{angstrom}  cell{angstrom}
       E -5.76387e+01 -9.13853e+00  2.95705e+01
       E  4.92566e-01 -1.02968e+01 -1.39912e+01
       E -2.74983e+00  3.60693e+00  1.22986e+01
3
# CELL(abcABC): 1322.94304  1322.94304  1322.94304    90.00000    90.00000    90.00000  Step:        2500  Bead:      15 positions{angstrom}  cell{angstrom}
       E -4.49045e+01  1.10486e+01  3.89019e+01
       E  2.04144e+01 -4.84287e+01 -5.32757e+01
       E  3.24058e+01 -1.91140e+01  1.40446e+01
3
# CELL(abcABC): 1322.94304  1322.94304  1322.94304    90.00000    90.00000    90.00000  Step:        2600  Bead:      15 positions{angstrom}  cell{angstrom}
       E -2.98984e+01 -1.91463e-01  4.16691e+01
       E -5.40894e+01 -4.98337e+01 -5.28440e+01
       E  5.41234e+00 -3.29997e+01  2.86617e+01
3
# CELL(abcABC): 1322.94304  1322.94304  1322.94304    90.00000    90.00000    90.00000  Step:        2700  Bead:      15 positions{angstrom}  cell{angstrom}
       E -3.69417e+01  3.95147e+01  1.57710e+01
       E -1.87086e+01 -2.33937e+01 -2.79605e+01
       E  4.87880e+01 -1.54305e+01  2.97248e+01
3
# CELL(abcABC): 1322.94304  1322.94304  1322.94304    90.00000    90.00000    90.00000  Step:        2800  Bead:      15 positions{angstrom}  cell{angstrom}
       E -1.14216e+01 -1.58057e+01  2.05512e+01
       E -5.57831e+01 -6.00908e+01 -2.51324e+01
       E  3.65040e+01 -1.79995e+01  2.00897e+01
3
# CELL(abcABC): 1322.94304  1322.94304  1322.94304    90.00000    90.00000    90.00000  Step:        2900  Bead:      15 positions{angstrom}  cell{angstrom}
       E -5.91067e+01 -5.64402e+00  2.70919e+01
       E -5.86760e+01 -7.46051e+01 -3.09030e+01
       E -1.96090e+01 -1.78414e+00  3.08270e+01
3
# CELL(abcABC): 1322.94304  1322.94304  1322.94304    90.00000    90.00000    90.00000  Step:        3000  Bead:      15 positions{angstrom}  cell{angstrom}
       E -3.14802e+01 -4.18822e+00  5.81052e+01
       E -5.43298e+01 -8.82117e+01  2.37121e+01
       E -2.74637e+01  2.31266e+01  1.57033e+01
3
# CELL(abcABC): 1322.94304  1322.94304  1322.94304    90.00000    90.00000    90.00000  Step:        3100  Bead:      15 positions{angstrom}  cell{angstrom}
       E -8.58363e+00 -6.06408e+00  1.46417e+01
       E -9.02056e+01 -4.72851e+01  1.73446e+01
       E -4.64447e+00  5.18922e+01  2.51150e+01
3
# CELL(abcABC): 1322.94304  1322.94304  1322.94304    90.00000    90.00000    90.00000  Step:        3200  Bead:      15 positions{angstrom}  cell{angstrom}
       E  1.87851e+01  1.64880e+01 -9.72750e+00
       E -1.10815e+02 -3.61537e+01  5.14417e+01
       E  1.57900e+01  5.95354e+01  4.76630e+01
3
# CELL(abcABC): 1322.94304  1322.94304  1322.94304    90.00000    90.00000    90.00000  Step:        3300  Bead:      15 positions{angstrom}  cell{angstrom}
       E  2.01238e+01 -1.22665e+00 -4.63384e+00
       E -7.22414e+01 -3.38826e+01  7.29277e+01
       E -2.13517e+01  6.97201e+01  5.45324e+01
3
# CELL(abcABC): 1322.94304  1322.94304  1322.94304    90.00000    90.00000    90.00000  Step:        3400  Bead:      15 positions{angstrom}  cell{angstrom}
       E -3.61516e+01  1.26431e+01  4.39849e+00
       E -8.57238e+01 -4.71903e+01  7.24663e+01
       E -1.36102e+01  7.13120e+01  4.97424e+01
3
# CELL(abcABC): 1322.94304  1322.94304  1322.94304    90.00000    90.00000    90.00000  Step:        3500  Bead:      15 positions{angstrom}  cell{angstrom}
       E -3.03197e+01  6.21977e+01  3.17190e+01
       E -4.05320e+01 -2.20635e+01  2.03881e+01
       E -3.13860e+01  4.41919e+01  5.48737e+01
3
# CELL(abcABC): 1322.94304  1322.94304  1322.94304    90.00000    90.00000    90.00000  Step:        3600  Bead:      15 positions{angstrom}  cell{angstrom}
       E -2.75257e+01  3.79761e+01  3.63284e+01
       E  2.12122e+00 -2.72382e+00  1.12709e+01
       E -2.20065e+01  4.13683e+01  1.89311e+01
3
# CELL(abcABC): 1322.94304  1322.94304  1322.94304    90.00000    90.00000    90.00000  Step:        3700  Bead:      15 positions{angstrom}  cell{angstrom}
       E -3.00095e+01  1.21637e+01 -3.84390e-01
       E -2.87778e+01 -1.74300e+01  2.00614e+01
       E -6.73494e+01  1.97965e+01 -4.04376e+00
3
# CELL(abcABC): 1322.94304  1322.94304  1322.94304    90.00000    90.00000    90.00000  Step:        3800  Bead:      15 positions{angstrom}  cell{angstrom}
       E -7.15179e+01 -6.02189e+00 -2.99623e+01
       E -2.99365e+01 -4.56924e+01 -1.46546e+01
       E -8.05907e+01  2.15227e+00 -3.30200e+01
3
# CELL(abcABC): 1322.94304  1322.94304  1322.94304    90.00000    90.00000    90.00000  Step:        3900  Bead:      15 positions{angstrom}  cell{angstrom}
       E -9.85898e+01  3.15531e+01 -2.19700e+01
       E -2.40013e+01 -2.61403e+01 -7.90438e+00
       E -4.82475e+01  9.54293e+00 -1.36350e+01
3
# CELL(abcABC): 1322.94304  1322.94304  1322.94304    90.00000    90.00000    90.00000  Step:        4000  Bead:      15 positions{angstrom}  cell{angstrom}
       E -8.78431e+01  4.53141e+01 -6.23291e+01
       E -3.17549e+01 -6.81407e-01  4.44340e+01
       E -4.09659e+01  2.97994e+01 -4.20184e+00
3
# CELL(abcABC): 1322.94304  1322.94304  1322.94304    90.00000    90.00000    90.00000  Step:        4100  Bead:      15 positions{angstrom}  cell{angstrom}
       E -4.31286e+01  5.52332e+01 -5.14819e+01
       E -4.87081e+01  3.08691e+01  4.62496e+01
       E -4.28440e+01 -1.42731e+01  2.49164e+01
3
# CELL(abcABC): 1322.94304  1322.94304  1322.94304    90.00000    90.00000    90.00000  Step:        4200  Bead:      15 positions{angstrom}  cell{angstrom}
       E -2.45620e+01  2.93681e+01 -5.53630e+01
       E -3.14788e+01  3.71396e+01  3.52818e+01
       E  4.86610e+00 -1.16307e+01  3.48607e+01
3
# CELL(abcABC): 1322.94304  1322.94304  1322.94304    90.00000    90.00000    90.00000  Step:        4300  Bead:      15 positions{angstrom}  cell{angstrom}
       E -6.79741e+01  5.84039e+01 -5.57340e+01
       E -4.79614e+01  5.34176e+01  6.03375e+01
       E -3.43353e+01  1.19389e+01  6.73089e+01
3
# CELL(abcABC): 1322.94304  1322.94304  1322.94304    90.00000    90.00000    90.00000  Step:        4400  Bead:      15 positions{angstrom}  cell{angstrom}
       E -2.02426e+01  5.95406e+00 -7.21781e+01
       E -3.27229e+01  4.79112e+01  1.45362e+01
       E -3.88414e+01 -1.83952e+01 -2.13007e+01
3
# CELL(abcABC): 1322.94304  1322.94304  1322.94304    90.00000    90.00000    90.00000  Step:        4500  Bead:      15 positions{angstrom}  cell{angstrom}
       E -5.43245e+01  1.95874e+01 -7.97319e+01
       E -7.01230e+01  8.24644e+01  4.29057e+00
       E -8.53532e+00 -1.06804e+01  1.70444e+01
3
# CELL(abcABC): 1322.94304  1322.94304  1322.94304    90.00000    90.00000    90.00000  Step:        4600  Bead:      15 positions{angstrom}  cell{angstrom}
       E -1.04432e+01  8.85576e-01 -9.40181e+01
       E -4.08857e+01  7.97475e+01 -6.21494e+00
       E  3.44055e+00 -9.58386e+00  6.77750e-01
3
# CELL(abcABC): 1322.94304  1322.94304  1322.94304    90.00000    90.00000    90.00000  Step:        4700  Bead:      15 positions{angstrom}  cell{angstrom}
       E -1.35123e+01  4.11792e+01 -4.76419e+01
       E -4.44148e+01  6.47712e+01 -3.17686e+01
       E  2.91376e+01 -1.14549e+01 -3.99458e+00
3
# CELL(abcABC): 1322.94304  1322.94304  1322.94304    90.00000    90.00000    90.00000  Step:        4800  Bead:      15 positions{angstrom}  cell{angstrom}
       E -1.62182e+01  2.66878e+01 -3.01473e+01
       E -6.12692e+01  3.61840e+01 -2.57473e+01
       E  3.69215e+01 -1.25324e+00  1.75962e+01
3
# CELL(abcABC): 1322.94304  1322.94304  1322.94304    90.00000    90.00000    90.00000  Step:        4900  Bead:      15 positions{angstrom}  cell{angstrom}
       E  2.52870e+01  3.35774e+01  1.47667e+01
       E -3.87628e+01  2.49662e+01 -1.23930e+01
       E  1.79681e+01  1.32665e+01 -1.02181e+00
3
# CELL(abcABC): 1322.94304  1322.94304  1322.94304    90.00000    90.00000    90.00000  Step:        5000  Bead:      15 positions{angstrom}  cell{angstrom}
       E  3.42297e+00 -3.31293e+00  2.07453e+01
       E -3.81327e+01 -7.03567e+00 -6.34810e+01
       E  1.68904e+01 -2.37387e+01 -7.81163e+00
3
# CELL(abcABC): 1322.94304  1322.94304  1322.94304    90.00000    90.00000    90.00000  Step:        5100  Bead:      15 positions{angstrom}  cell{angstrom}
       E -2.13297e+01  2.61241e+01  2.04074e+01
       E -3.50931e+01  1.97883e+01 -4.11074e+01
       E -1.83312e+01 -7.29528e+00 -3.97152e+01
3
# CELL(abcABC): 1322.94304  1322.94304  1322.94304    90.00000    90.00000    90.00000  Step:        5200  Bead:      15 positions{angstrom}  cell{angstrom}
       E  6.09854e+00  2.15308e+01  3.06983e+01
       E -3.17272e+01  5.73472e+00 -2.35865e+01
       E -1.68125e+01  4.90668e+01  1.19380e+01
3
# CELL(abcABC): 1322.94304  1322.94304  1322.94304    90.00000    90.00000    90.00000  Step:        5300  Bead:      15 positions{angstrom}  cell{angstrom}
       E  2.31765e+01  1.03468e+01  2.69971e+01
       E -4.07911e+01  4.24378e+01  5.89072e+00
       E -3.38969e+01  3.94836e+01  5.32476e+01
3
# CELL(abcABC): 1322.94304  1322.94304  1322.94304    90.00000    90.00000    90.00000  Step:        5400  Bead:      15 positions{angstrom}  cell{angstrom}
       E  1.32296e+01 -1.92642e+01  2.63853e+01
       E -1.78253e+01  2.10764e+01 -1.15229e+01
       E -3.87953e+01  3.03155e+01  5.64800e+01
3
# CELL(abcABC): 1322.94304  1322.94304  1322.94304    90.00000    90.00000    90.00000  Step:        5500  Bead:      15 positions{angstrom}  cell{angstrom}
       E  1.39224e+01  2.56938e+01  2.44604e+01
       E -3.35780e+01 -2.50315e+00 -1.64075e+01
       E -3.80664e+01 -1.70522e+01  3.12557e+01
3
# CELL(abcABC): 1322.94304  1322.94304  1322.94304    90.00000    90.00000    90.00000  Step:        5600  Bead:      15 positions{angstrom}  cell{angstrom}
       E -1.36613e+01  1.44821e+01  2.43281e+00
       E -5.37811e+01 -1.18933e+01 -1.87661e+01
       E -5.39803e+01 -2.23153e+01  2.12848e+01
3
# CELL(abcABC): 1322.94304  1322.94304  1322.94304    90.00000    90.00000    90.00000  Step:        5700  Bead:      15 positions{angstrom}  cell{angstrom}
       E  1.81583e+00 -1.56896e+01  2.01293e+00
       E -4.03186e+01  4.33440e+01  4.88680e+00
       E -2.64214e+01  6.80388e+00  1.92579e+01
3
# CELL(abcABC): 1322.94304  1322.94304  1322.94304    90.00000    90.00000    90.00000  Step:        5800  Bead:      15 positions{angstrom}  cell{angstrom}
       E -1.86535e+01 -7.05997e+00 -1.18970e+01
       E -4.81785e+01  4.20621e+01 -3.82104e+01
       E -1.32347e+01  1.46968e+01 -2.05790e+01
3
# CELL(abcABC): 1322.94304  1322.94304  1322.94304    90.00000    90.00000    90.00000  Step:        5900  Bead:      15 positions{angstrom}  cell{angstrom}
       E  1.21611e+01  1.06051e+01 -8.19936e+00
       E -2.16190e+01  1.84486e+01 -1.24554e+01
       E -1.43053e+00 -2.08954e+01 -6.98240e+00
3
# CELL(abcABC): 1322.94304  1322.94304  1322.94304    90.00000    90.00000    90.00000  Step:        6000  Bead:      15 positions{angstrom}  cell{angstrom}
       E  3.61151e+01 -4.16097e+00  1.36293e+01
       E -1.38474e+01 -6.87353e+00  8.83449e+00
       E -2.82387e+01 -7.56715e+00  3.06920e+00
3
# CELL(abcABC): 1322.94304  1322.94304  1322.94304    90.00000    90.00000    90.00000  Step:        6100  Bead:      15 positions{angstrom}  cell{angstrom}
       E -2.57109e+01 -1.10457e+01 -2.79273e+01
       E  3.92315e+01 -3.37962e-01  3.47573e+01
       E  2.13103e+00 -1.39652e+01 -8.84592e+00
3
# CELL(abcABC): 1322.94304  1322.94304  1322.94304    90.00000    90.00000    90.00000  Step:        6200  Bead:      15 positions{angstrom}  cell{angstrom}
       E -8.70558e-01 -2.34099e+01 -5.95910e+01
       E  6.79088e+01  3.57114e+01  2.67458e+00
       E  2.74466e+01 -1.16209e+01  4.25026e+00
3
# CELL(abcABC): 1322.94304  1322.94304  1322.94304    90.00000    90.00000    90.00000  Step:        6300  Bead:      15 positions{angstrom}  cell{angstrom}
       E -1.44859e+01 -6.20282e+01 -1.04871e+02
       E  7.84002e+01  1.69382e+01 -1.72498e+01
       E  6.93841e+00 -1.27467e+01  3.76757e+00
3
# CELL(abcABC): 1322.94304  1322.94304  1322.94304    90.00000    90.00000    90.00000  Step:        6400  Bead:      15 positions{angstrom}  cell{angstrom}
       E -1.14806e+01 -7.02981e+01 -7.71430e+01
       E  6.75208e+01  4.57992e+01 -2.06154e+01
       E -5.97816e+00  1.93326e+01 -6.38461e+00
3
# CELL(abcABC): 1322.94304  1322.94304  1322.94304    90.00000    90.00000    90.00000  Step:        6500  Bead:      15 positions{angstrom}  cell{angstrom}
       E  5.55142e+00 -7.68872e+01 -9.64459e+01
       E -5.90972e+00 -9.47166e+00 -1.89638e+01
       E  2.53023e+01 -2.60710e+01 -1.11201e+01
3
# CELL(abcABC): 1322.94304  1322.94304  1322.94304    90.00000    90.00000    90.00000  Step:        6600  Bead:      15 positions{angstrom}  cell{angstrom}
       E  1.30775e+00 -5.22431e+01 -8.38873e+01
       E  2.38741e+01 -3.62120e+01 -1.88575e+01
       E  3.43737e+01 -2.34869e+01 -7.93951e-01
3
# CELL(abcABC): 1322.94304  1322.94304  1322.94304    90.00000    90.00000    90.00000  Step:        6700  Bead:      15 positions{angstrom}  cell{angstrom}
       E  1.12620e+01 -8.72092e+01 -6.46902e+01
       E  1.45831e+01  6.55151e+00 -1.70895e+01
       E  2.46980e+00 -9.22434e+00  4.69283e+00
3
# CELL(abcABC): 1322.94304  1322.94304  1322.94304    90.00000    90.00000    90.00000  Step:        6800  Bead:      15 positions{angstrom}  cell{angstrom}
       E -1.45004e+01 -1.16552e+02 -3.67442e+01
       E  4.36865e+01 -3.64317e+00 -1.40238e+00
       E  3.15648e+01  2.94313e+00  1.41431e+01
3
# CELL(abcABC): 1322.94304  1322.94304  1322.94304    90.00000    90.00000    90.00000  Step:        6900  Bead:      15 positions{angstrom}  cell{angstrom}
       E -1.65283e+00 -7.69315e+01 -3.44907e+01
       E  2.53199e+01 -2.78795e+01 -5.32637e+00
       E -9.83598e+00  4.07138e+01  2.81347e+01
3
# CELL(abcABC): 1322.94304  1322.94304  1322.94304    90.00000    90.00000    90.00000  Step:        7000  Bead:      15 positions{angstrom}  cell{angstrom}
       E  5.08150e+01 -9.59173e+01 -2.65861e+01
       E -6.69915e+00 -3.13448e+01  3.39354e+01
       E -2.97254e+00  5.41493e+01  7.14523e+00
3
# CELL(abcABC): 1322.94304  1322.94304  1322.94304    90.00000    90.00000    90.00000  Step:        7100  Bead:      15 positions{angstrom}  cell{angstrom}
       E  2.44855e+01 -2.00239e+01 -4.59057e-01
       E -2.51551e+01  1.78202e+00  1.93210e+01
       E  5.29927e+01  6.02124e+01 -1.81963e+01
3
# CELL(abcABC): 1322.94304  1322.94304  1322.94304    90.00000    90.00000    90.00000  Step:        7200  Bead:      15 positions{angstrom}  cell{angstrom}
       E  4.71492e+01 -6.07127e+00 -1.77903e+01
       E -4.29528e+01  2.18531e+00  2.68541e+01
       E  4.16452e+01  2.01275e+01 -2.23466e+01
3
# CELL(abcABC): 1322.94304  1322.94304  1322.94304    90.00000    90.00000    90.00000  Step:        7300  Bead:      15 positions{angstrom}  cell{angstrom}
       E  2.24567e+01 -4.33719e+01 -4.14229e+01
       E -2.78381e+01  3.25834e+01  3.32080e+01
       E  2.46427e+01  2.50695e+01 -1.98554e+01
3
# CELL(abcABC): 1322.94304  1322.94304  1322.94304    90.00000    90.00000    90.00000  Step:        7400  Bead:      15 positions{angstrom}  cell{angstrom}
       E  4.42323e+01 -4.33296e+01 -5.75413e+01
       E -4.21071e+01  1.47501e+01 -2.46008e+00
       E  3.87305e+01  4.36541e+01 -1.44914e+01
3
# CELL(abcABC): 1322.94304  1322.94304  1322.94304    90.00000    90.00000    90.00000  Step:        7500  Bead:      15 positions{angstrom}  cell{angstrom}
       E  1.39016e+01 -7.66984e+01 -6.79837e+01
       E -5.00552e+01 -1.25126e+01 -7.10702e-01
       E  6.15198e+01  3.12789e+01 -6.89356e+00
3
# CELL(abcABC): 1322.94304  1322.94304  1322.94304    90.00000    90.00000    90.00000  Step:        7600  Bead:      15 positions{angstrom}  cell{angstrom}
       E  2.82402e+01 -6.29086e+01 -4.07750e+01
       E -5.72355e+00 -3.79893e+01  3.69178e+00
       E  3.17825e+01  3.04458e+01 -3.19432e+01
3
# CELL(abcABC): 1322.94304  1322.94304  1322.94304    90.00000    90.00000    90.00000  Step:        7700  Bead:      15 positions{angstrom}  cell{angstrom}
       E  1.91901e+01 -8.44571e+01 -1.70512e+01
       E -1.36545e+01 -5.77829e+01 -4.50029e+01
       E  4.98819e+01  6.15127e+01 -4.04528e+01
3
# CELL(abcABC): 1322.94304  1322.94304  1322.94304    90.00000    90.00000    90.00000  Step:        7800  Bead:      15 positions{angstrom}  cell{angstrom}
       E  1.13740e+01 -7.02962e+01 -4.46510e+01
       E -4.45407e+01 -5.26525e+01 -4.03092e+01
       E  3.99695e+01  4.74985e+01 -5.26292e+01
3
# CELL(abcABC): 1322.94304  1322.94304  1322.94304    90.00000    90.00000    90.00000  Step:        7900  Bead:      15 positions{angstrom}  cell{angstrom}
       E  3.16582e+01 -2.69740e+01 -2.81005e+01
       E  3.23872e-01 -1.28335e+01 -1.43460e+01
       E  1.86880e+01  1.18273e+01 -2.85582e+01
3
# CELL(abcABC): 1322.94304  1322.94304  1322.94304    90.00000    90.00000    90.00000  Step:        8000  Bead:      15 positions{angstrom}  cell{angstrom}
       E  1.02597e+01 -1.75868e+01 -4.38891e+01
       E -4.45902e+01  2.69074e+01 -2.91041e+01
       E  1.31603e+01 -1.23856e+01 -2.54639e+01
3
# CELL(abcABC): 1322.94304  1322.94304  1322.94304    90.00000    90.00000    90.00000  Step:        8100  Bead:      15 positions{angstrom}  cell{angstrom}
       E -4.46760e+00  2.09197e+01 -4.46368e+01
       E -1.39889e+01  2.54052e+01 -1.62225e+01
       E  1.94112e+01  4.92754e+00 -1.73114e+00
3
# CELL(abcABC): 1322.94304  1322.94304  1322.94304    90.00000    90.00000    90.00000  Step:        8200  Bead:      15 positions{angstrom}  cell{angstrom}
       E  3.97877e+01  3.64018e+01 -5.43957e+01
       E -2.43208e+01 -8.87363e+00 -1.92278e+01
       E  3.57596e+00 -1.51191e+01  3.40344e+01
3
# CELL(abcABC): 1322.94304  1322.94304  1322.94304    90.00000    90.00000    90.00000  Step:        8300  Bead:      15 positions{angstrom}  cell{angstrom}
       E  2.59973e+01  3.49138e+01 -3.47161e+01
       E -1.54310e+01  3.03847e+01 -1.04092e+01
       E  3.03034e+01 -6.62420e+01  6.53126e+01
3
# CELL(abcABC): 1322.94304  1322.94304  1322.94304    90.00000    90.00000    90.00000  Step:        8400  Bead:      15 positions{angstrom}  cell{angstrom}
       E -1.21318e+01  2.49770e+01 -2.64981e+01
       E  1.10989e+01  4.17016e+01 -1.29843e+01
       E -5.44578e+00 -3.89265e+01  5.68974e+01
3
# CELL(abcABC): 1322.94304  1322.94304  1322.94304    90.00000    90.00000    90.00000  Step:        8500  Bead:      15 positions{angstrom}  cell{angstrom}
       E  7.10366e+00 -9.92418e+00 -9.31763e+00
       E  4.87891e+01  9.42080e+00 -2.78173e+01
       E  2.45618e+01 -3.93291e+01  4.38997e+01
3
# CELL(abcABC): 1322.94304  1322.94304  1322.94304    90.00000    90.00000    90.00000  Step:        8600  Bead:      15 positions{angstrom}  cell{angstrom}
       E -1.50767e+00 -5.74409e+00 -9.99573e+00
       E  4.07428e+01  1.20301e+01 -2.55264e+01
       E  2.45091e+01  4.15291e-01  2.17053e+01
3
# CELL(abcABC): 1322.94304  1322.94304  1322.94304    90.00000    90.00000    90.00000  Step:        8700  Bead:      15 positions{angstrom}  cell{angstrom}
       E -2.12284e+01 -1.61289e+01 -1.84473e+00
       E  3.42158e+01  2.11782e+01 -3.91939e+01
       E  1.41831e+01 -3.11175e+01  4.93679e+01
3
# CELL(abcABC): 1322.94304  1322.94304  1322.94304    90.00000    90.00000    90.00000  Step:        8800  Bead:      15 positions{angstrom}  cell{angstrom}
       E -4.16203e+01  3.52872e+01  2.54722e+01
       E  2.95071e+01 -1.04253e+01 -1.48870e+01
       E  3.39715e+01 -7.30188e+01  4.76048e+01
3
# CELL(abcABC): 1322.94304  1322.94304  1322.94304    90.00000    90.00000    90.00000  Step:        8900  Bead:      15 positions{angstrom}  cell{angstrom}
       E -5.52867e+01  4.64403e+01  5.66498e+01
       E -1.67691e+01  2.80007e+00  2.92982e+01
       E  1.55061e+01 -4.17022e+01  5.13242e+01
3
# CELL(abcABC): 1322.94304  1322.94304  1322.94304    90.00000    90.00000    90.00000  Step:        9000  Bead:      15 positions{angstrom}  cell{angstrom}
       E -1.50422e+01  4.18852e+01  3.76740e+01
       E  2.24527e+00 -8.17682e+00  5.32520e+01
       E  4.89843e+01 -2.45404e+01  3.80558e+00
3
# CELL(abcABC): 1322.94304  1322.94304  1322.94304    90.00000    90.00000    90.00000  Step:        9100  Bead:      15 positions{angstrom}  cell{angstrom}
       E  4.81999e+00  6.74784e-01  2.55791e+01
       E -1.54279e+01  3.12723e+00  7.81187e+01
       E  3.99092e+01 -1.05124e+01  2.78565e+01
3
# CELL(abcABC): 1322.94304  1322.94304  1322.94304    90.00000    90.00000    90.00000  Step:        9200  Bead:      15 positions{angstrom}  cell{angstrom}
       E  4.65521e+01  1.97655e+01  2.48863e+01
       E -2.14026e+01  1.90338e+01  5.72362e+01
       E  3.26730e+01 -6.81481e+01  8.53757e+00
3
# CELL(abcABC): 1322.94304  1322.94304  1322.94304    90.00000    90.00000    90.00000  Step:        9300  Bead:      15 positions{angstrom}  cell{angstrom}
       E  1.08775e+01  3.05714e+01  9.81667e+00
       E -4.96039e+01 -2.58473e+01  1.61825e+01
       E  4.55112e+00 -6.91489e+01 -1.60205e+01
3
# CELL(abcABC): 1322.94304  1322.94304  1322.94304    90.00000    90.00000    90.00000  Step:        9400  Bead:      15 positions{angstrom}  cell{angstrom}
       E  1.43108e+01  5.70851e+01 -3.25213e+01
       E -4.77724e+01 -4.19781e+01  1.66640e+01
       E  1.98183e+01 -3.49739e+01 -1.43185e+01
3
# CELL(abcABC): 1322.94304  1322.94304  1322.94304    90.00000    90.00000    90.00000  Step:        9500  Bead:      15 positions{angstrom}  cell{angstrom}
       E  1.61883e+01  5.03331e+01 -6.38776e+01
       E -1.44692e+01 -4.44560e+01  2.30411e+01
       E  2.77807e+01 -9.50558e+00  3.58712e+01
3
# CELL(abcABC): 1322.94304  1322.94304  1322.94304    90.00000    90.00000    90.00000  Step:        9600  Bead:      15 positions{angstrom}  cell{angstrom}
       E  1.57184e+01  1.29939e+01 -4.82544e+01
       E  2.22719e+01 -4.83096e+01  2.48002e+01
       E  1.67695e+01 -1.74550e+01  1.52288e+01
3
# CELL(abcABC): 1322.94304  1322.94304  1322.94304    90.00000    90.00000    90.00000  Step:        9700  Bead:      15 positions{angstrom}  cell{angstrom}
       E  2.21709e+01 -5.22788e+01 -1.96768e+01
       E  4.73321e+01 -8.27761e+01  3.24958e+01
       E  1.32764e+01  1.35101e+01  1.86693e+01
3
# CELL(abcABC): 1322.94304  1322.94304  1322.94304    90.00000    90.00000    90.00000  Step:        9800  Bead:      15 positions{angstrom}  cell{angstrom}
       E -3.85678e+01 -5.49231e+01 -4.12150e+01
       E  2.51472e+01 -8.96318e+01 -7.13739e+00
       E  1.43408e+01 -2.11355e+01  2.11705e+01
3