3
# CELL(abcABC): 1322.94304  1322.94304  1322.94304    90.00000    90.00000    90.00000  Step:           0  Bead:       3 positions{angstrom}  cell{angstrom}
       E  0.00000e+00  0.00000e+00  0.00000e+00
       E  0.00000e+00  0.00000e+00  0.00000e+00
       E  0.00000e+00  0.00000e+00  0.00000e+00
3
# CELL(abcABC): 1322.94304  1322.94304  1322.94304    90.00000    90.00000    90.00000  Step:         100  Bead:       3 positions{angstrom}  cell{angstrom}
       E -3.36904e+01 -4.78916e+01 -1.05465e+01
       E  9.53663e+00 -5.32222e+00 -5.81736e+00
       E -2.30360e+01  9.42592e+00  2.44340e+01
3
# CELL(abcABC): 1322.94304  1322.94304  1322.94304    90.00000    90.00000    90.00000  Step:         200  Bead:       3 positions{angstrom}  cell{angstrom}
       E -1.51250e+01 -8.78012e+00 -1.40858e+01
       E  1.91912e+01  1.37826e+01 -3.21335e+01
       E  1.17105e+00  6.84066e+00  2.78509e+01
3
# CELL(abcABC): 1322.94304  1322.94304  1322.94304    90.00000    90.00000    90.00000  Step:         300  Bead:       3 positions{angstrom}  cell{angstrom}
       E  3.72397e+01 -4.52243e+00 -3.96689e+01
       E  3.30338e+00 -3.42498e+00  3.20957e-01
       E -8.18489e+00  4.04118e+00  5.49785e+01
3
# CELL(abcABC): 1322.94304  1322.94304  1322.94304    90.00000    90.00000    90.00000  Step:         400  Bead:       3 positions{angstrom}  cell{angstrom}
       E  3.83987e+01  3.01529e+00 -1.34803e+01
       E  1.97705e+01 -7.41469e+00  7.65065e+00
       E -9.22969e+00  2.10225e+01  3.43069e+01
3
# CELL(abcABC): 1322.94304  1322.94304  1322.94304    90.00000    90.00000    90.00000  Step:         500  Bead:       3 positions{angstrom}  cell{angstrom}
       E  8.88911e-01 -8.39209e+00 -2.79428e+01
       E  3.10296e+01  1.33565e+01  2.52782e+01
       E -1.08800e+01  4.27422e+01  8.15640e+00
3
# CELL(abcABC): 1322.94304  1322.94304  1322.94304    90.00000    90.00000    90.00000  Step:         600  Bead:       3 positions{angstrom}  cell{angstrom}
       E -1.22620e+01  1.51728e+01 -7.36849e+01
       E -1.55179e+01 -1.01951e+00  4.30097e+01
       E -6.73761e+00  1.17863e+01  3.94634e+01
3
# CELL(abcABC): 1322.94304  1322.94304  1322.94304    90.00000    90.00000    90.00000  Step:         700  Bead:       3 positions{angstrom}  cell{angstrom}
       E -1.10167e+01  2.20122e+01 -2.52574e+01
       E -1.91566e+01 -1.07514e+01  1.94074e+01
       E -7.98068e+00  1.90855e+01  4.37898e+01
3
# CELL(abcABC): 1322.94304  1322.94304  1322.94304    90.00000    90.00000    90.00000  Step:         800  Bead:       3 positions{angstrom}  cell{angstrom}
       E -5.20006e+00  2.38326e+01 -2.31295e+01
       E -1.15079e+01  5.89208e+00  1.04275e+01
       E -4.48789e+01  4.16977e+01  3.70002e+01
3
# CELL(abcABC): 1322.94304  1322.94304  1322.94304    90.00000    90.00000    90.00000  Step:         900  Bead:       3 positions{angstrom}  cell{angstrom}
       E  1.10852e+01 -9.48707e+00 -3.28632e+00
       E  3.04891e+01 -1.89896e+00  2.39295e+01
       E -4.75854e+01  5.01502e+01  8.14751e+01
3
# CELL(abcABC): 1322.94304  1322.94304  1322.94304    90.00000    90.00000    90.00000  Step:        1000  Bead:       3 positions{angstrom}  cell{angstrom}
       E -9.92025e+00 -8.81558e+00 -5.72080e+01
       E  3.48498e+01  1.90038e+01 -2.89052e+01
       E -6.26915e+00 -1.37872e+00  9.75621e+01
3
# CELL(abcABC): 1322.94304  1322.94304  1322.94304    90.00000    90.00000    90.00000  Step:        1100  Bead:       3 positions{angstrom}  cell{angstrom}
       E -1.07135e+01  3.40407e+01 -5.78082e+01
       E  4.12098e+01 -2.05173e+00 -4.74843e+01
       E -3.08156e+01 -2.82314e+01  4.57169e+01
3
# CELL(abcABC): 1322.94304  1322.94304  1322.94304    90.00000    90.00000    90.00000  Step:        1200  Bead:       3 positions{angstrom}  cell{angstrom}
       E  1.75640e+01  3.88461e+01 -4.22789e+01
       E  4.37764e+01 -2.45061e+01 -4.74904e+01
       E -1.09274e+01 -4.76284e+00  2.94555e+01
3
# CELL(abcABC): 1322.94304  1322.94304  1322.94304    90.00000    90.00000    90.00000  Step:        1300  Bead:       3 positions{angstrom}  cell{angstrom}
       E  4.65623e+00  2.54244e+01 -5.37383e+01
       E -3.34709e+00 -6.36292e+01 -2.21774e+01
       E -1.60268e+01  4.97997e+01  2.08154e+01
3
# CELL(abcABC): 1322.94304  1322.94304  1322.94304    90.00000    90.00000    90.00000  Step:        1400  Bead:       3 positions{angstrom}  cell{angstrom}
       E -2.82271e+01  4.25244e+00 -4.71372e+01
       E -1.31296e+01 -1.05012e+01 -6.18853e+01
       E -5.66242e+01  2.68907e+01  3.59540e+01
3
# CELL(abcABC): 1322.94304  1322.94304  1322.94304    90.00000    90.00000    90.00000  Step:        1500  Bead:       3 positions{angstrom}  cell{angstrom}
       E -6.22236e+01  3.29592e+01 -3.49486e+01
       E -7.85282e+00 -1.27963e+01 -6.33815e+01
       E -2.76252e+01  1.99674e+01  5.54108e+00
3
# CELL(abcABC): 1322.94304  1322.94304  1322.94304    90.00000    90.00000    90.00000  Step:        1600  Bead:       3 positions{angstrom}  cell{angstrom}
       E -2.44511e+01  4.08611e+01 -3.26442e+01
       E  2.58638e+00 -2.53454e+01 -1.12511e+01
       E -3.20231e+01  4.83740e+01  1.34694e+01
3
# CELL(abcABC): 1322.94304  1322.94304  1322.94304    90.00000    90.00000    90.00000  Step:        1700  Bead:       3 positions{angstrom}  cell{angstrom}
       E -2.86765e+01  2.53284e+01 -1.67441e+01
       E -1.39558e+01 -1.10222e+01  1.42290e+00
       E -2.40075e+01  8.34410e+01  1.42885e+01
3
# CELL(abcABC): 1322.94304  1322.94304  1322.94304    90.00000    90.00000    90.00000  Step:        1800  Bead:       3 positions{angstrom}  cell{angstrom}
       E -5.25824e+01  1.29213e+01  1.79964e+01
       E -4.95717e+01  1.70604e+01 -4.11401e-01
       E -6.60294e+01  6.01452e+01  2.95636e+01
3
# CELL(abcABC): 1322.94304  1322.94304  1322.94304    90.00000    90.00000    90.00000  Step:        1900  Bead:       3 positions{angstrom}  cell{angstrom}
       E -2.16042e+01 -4.95008e+00  2.74594e+00
       E -6.79977e+01 -1.84532e+01 -9.78508e+00
       E -8.04152e+01  3.11863e+01  5.67558e+01
3
# CELL(abcABC): 1322.94304  1322.94304  1322.94304    90.00000    90.00000    90.00000  Step:        2000  Bead:       3 positions{angstrom}  cell{angstrom}
       E -1.22146e+01  1.92103e+00  2.66874e+01
       E -5.74219e+01  4.34916e+00  4.34795e+01
       E -4.50495e+01  7.13102e+01  5.86580e+01
3
# CELL(abcABC): 1322.94304  1322.94304  1322.94304    90.00000    90.00000    90.00000  Step:        2100  Bead:       3 positions{angstrom}  cell{angstrom}
       E -3.64476e+01 -9.18110e+00 -4.24797e-01
       E -4.53313e+01 -1.06834e+01  2.21042e+01
       E -5.63160e+01  3.28844e+01  5.10037e+01
3
# CELL(abcABC): 1322.94304  1322.94304  1322.94304    90.00000    90.00000    90.00000  Step:        2200  Bead:       3 positions{angstrom}  cell{angstrom}
       E -1.47621e+01  3.40423e+00  2.01648e+01
       E -7.26572e+01 -1.79296e+01 -6.20385e+00
       E -1.57161e+01 -6.67339e+00  3.63570e+01
3
# CELL(abcABC): 1322.94304  1322.94304  1322.94304    90.00000    90.00000    90.00000  Step:        2300  Bead:       3 positions{angstrom}  cell{angstrom}
       E  1.88995e+01  1.07297e+01  1.52237e+01
       E -1.75691e+01 -5.56018e+01 -2.97004e+01
       E -1.13228e+00  3.64880e+01  2.85204e+01
3
# CELL(abcABC): 1322.94304  1322.94304  1322.94304    90.00000    90.00000    90.00000  Step:        2400  Bead:       3 positions{angstrom}  cell{angstrom}
       E -6.45441e+00  1.67449e+01  7.83012e+00
       E  1.75872e+01 -5.89261e+01 -2.03355e+01
       E -1.33438e+01 -3.33236e+00  3.78739e+01
3
# CELL(abcABC): 1322.94304  1322.94304  1322.94304    90.00000    90.00000    90.00000  Step:        2500  Bead:       3 positions{angstrom}  cell{angstrom}
       E  4.00109e+01  7.16978e+00  3.55277e+01
       E -3.80215e+00 -2.31524e+01 -2.16848e+01
       E -4.45551e+01 -4.29721e+01  7.88923e+01
3
# CELL(abcABC): 1322.94304  1322.94304  1322.94304    90.00000    90.00000    90.00000  Step:        2600  Bead:       3 positions{angstrom}  cell{angstrom}
       E  3.64811e+01 -1.57799e+01  8.86736e+01
       E -2.55307e+01 -4.16868e+01 -3.58033e+01
       E -5.71668e+01 -5.20952e+01  4.81466e+01
3
# CELL(abcABC): 1322.94304  1322.94304  1322.94304    90.00000    90.00000    90.00000  Step:        2700  Bead:       3 positions{angstrom}  cell{angstrom}
       E  2.66250e+01 -4.55950e+00  2.96030e+01
       E -5.21541e+01 -5.01684e+01 -1.72266e+01
       E -3.93666e+01 -7.72821e+00  7.67101e+01
3
# CELL(abcABC): 1322.94304  1322.94304  1322.94304    90.00000    90.00000    90.00000  Step:        2800  Bead:       3 positions{angstrom}  cell{angstrom}
       E  2.99238e+01 -4.97086e+01  1.82334e+01
       E -3.41616e+01 -2.84685e+01 -3.60538e+01
       E -1.76131e+01 -6.97490e+00  5.83866e+01
3
# CELL(abcABC): 1322.94304  1322.94304  1322.94304    90.00000    90.00000    90.00000  Step:        2900  Bead:       3 positions{angstrom}  cell{angstrom}
       E -2.87479e+01 -4.81811e+01  7.88095e+00
       E -3.55263e+01 -4.59205e+01  2.09673e+00
       E  1.39089e+01 -3.47468e+01  7.47454e+01
3
# CELL(abcABC): 1322.94304  1322.94304  1322.94304    90.00000    90.00000    90.00000  Step:        3000  Bead:       3 positions{angstrom}  cell{angstrom}
       E  1.55402e+01 -6.74062e+00 -8.37500e+00
       E -3.77970e+01 -4.92144e+01  9.85599e+00
       E -9.93827e+00 -3.76486e+01  2.07705e+01
3
# CELL(abcABC): 1322.94304  1322.94304  1322.94304    90.00000    90.00000    90.00000  Step:        3100  Bead:       3 positions{angstrom}  cell{angstrom}
       E  7.65306e+00 -3.08813e+01  2.93379e+01
       E -2.15771e+01 -7.92016e+01  4.89845e+01
       E -6.99055e+01 -1.02281e+01  1.74002e+01
3
# CELL(abcABC): 1322.94304  1322.94304  1322.94304    90.00000    90.00000    90.00000  Step:        3200  Bead:       3 positions{angstrom}  cell{angstrom}
       E -8.43539e+00  3.61051e+01  5.65383e+01
       E -5.63664e+01 -6.02234e+01  3.01997e+01
       E  2.50785e-01  3.80358e+00  4.49350e+01
3
# CELL(abcABC): 1322.94304  1322.94304  1322.94304    90.00000    90.00000    90.00000  Step:        3300  Bead:       3 positions{angstrom}  cell{angstrom}
       E  1.17128e+01  2.91983e+01  5.25260e+01
       E -6.24827e+01 -3.13864e+01  5.32921e+01
       E -4.52103e+01  7.44728e+00  7.61334e+01
3
# CELL(abcABC): 1322.94304  1322.94304  1322.94304    90.00000    90.00000    90.00000  Step:        3400  Bead:       3 positions{angstrom}  cell{angstrom}
       E -1.72054e+01  2.35637e+01  8.22952e+01
       E -7.29402e+01 -5.14832e+01  5.54107e+01
       E -4.64403e+01 -8.20909e+00  9.79575e+01
3
# CELL(abcABC): 1322.94304  1322.94304  1322.94304    90.00000    90.00000    90.00000  Step:        3500  Bead:       3 positions{angstrom}  cell{angstrom}
       E -1.88553e+01  1.33943e+01 -5.81645e+00
       E -6.64895e+01 -5.64704e+01  4.55452e+01
       E -6.29700e+01  3.16846e+00  6.95714e+01
3
# CELL(abcABC): 1322.94304  1322.94304  1322.94304    90.00000    90.00000    90.00000  Step:        3600  Bead:       3 positions{angstrom}  cell{angstrom}
       E -2.59115e+01  1.94683e+01 -1.73882e+01
       E -6.22113e+01 -5.38201e+01  1.08808e+01
       E -9.04557e+01 -2.53697e+01  3.76536e+01
3
# CELL(abcABC): 1322.94304  1322.94304  1322.94304    90.00000    90.00000    90.00000  Step:        3700  Bead:       3 positions{angstrom}  cell{angstrom}
       E -3.40302e+01 -1.40385e+01 -2.42957e+01
       E -7.36969e+00 -4.24724e+01  2.73119e+01
       E -6.33767e+01 -2.83233e+01  2.65270e+01
3
# CELL(abcABC): 1322.94304  1322.94304  1322.94304    90.00000    90.00000    90.00000  Step:        3800  Bead:       3 positions{angstrom}  cell{angstrom}
       E -6.30700e+01 -1.52546e+01 -3.35158e+01
       E  8.97294e-01 -2.33221e+01 -1.62844e+01
       E -5.24006e+01 -4.00769e+01  1.14090e+01
3
# CELL(abcABC): 1322.94304  1322.94304  1322.94304    90.00000    90.00000    90.00000  Step:        3900  Bead:       3 positions{angstrom}  cell{angstrom}
       E -4.43665e+01 -5.72176e+00  1.19353e+00
       E -3.02630e+01 -1.01470e+01 -5.82330e+01
       E -5.37522e+01 -1.95802e+01  1.56966e+00
3
# CELL(abcABC): 1322.94304  1322.94304  1322.94304    90.00000    90.00000    90.00000  Step:        4000  Bead:       3 positions{angstrom}  cell{angstrom}
       E -4.27828e+01  2.20719e+01  1.02766e+01
       E -4.52101e+01 -1.28148e+01 -1.55437e+01
       E -5.42657e+01 -3.58972e+01 -1.33048e+00
3
# CELL(abcABC): 1322.94304  1322.94304  1322.94304    90.00000    90.00000    90.00000  Step:        4100  Bead:       3 positions{angstrom}  cell{angstrom}
       E -5.50503e+01  3.43820e+01 -5.38579e+01
       E -2.16963e+01  5.93117e+01  1.61427e+01
       E -7.05617e+01  1.78194e+01 -1.17015e+01
3
# CELL(abcABC): 1322.94304  1322.94304  1322.94304    90.00000    90.00000    90.00000  Step:        4200  Bead:       3 positions{angstrom}  cell{angstrom}
       E -1.21865e+01  4.00773e+01 -2.66670e+01
       E -3.49000e+01  4.10757e+01  1.98338e+01
       E -9.74822e+01 -2.13935e+01 -2.37630e+01
3
# CELL(abcABC): 1322.94304  1322.94304  1322.94304    90.00000    90.00000    90.00000  Step:        4300  Bead:       3 positions{angstrom}  cell{angstrom}
       E -3.45994e+01  7.78324e+00 -5.32125e+01
       E -4.44935e+01  2.39282e+01  6.59466e+00
       E -7.79002e+01 -2.67575e+01  3.62754e+01
3
# CELL(abcABC): 1322.94304  1322.94304  1322.94304    90.00000    90.00000    90.00000  Step:        4400  Bead:       3 positions{angstrom}  cell{angstrom}
       E -4.81682e+01  2.76600e+01 -8.12093e+01
       E -6.64863e+01  6.17045e+01  2.70305e+01
       E -6.79773e+01 -1.98831e+01  3.11264e+01
3
# CELL(abcABC): 1322.94304  1322.94304  1322.94304    90.00000    90.00000    90.00000  Step:        4500  Bead:       3 positions{angstrom}  cell{angstrom}
       E -3.39262e+01  3.78285e+01 -5.25003e+01
       E -6.78684e+01  9.09948e+01  2.34087e+01
       E -2.19952e+01 -2.01562e+01  2.72346e+01
3
# CELL(abcABC): 1322.94304  1322.94304  1322.94304    90.00000    90.00000    90.00000  Step:        4600  Bead:       3 positions{angstrom}  cell{angstrom}
       E -3.03041e+01  1.81410e+01 -4.22874e+01
       E -8.21870e+01  3.68585e+01  1.22042e+01
       E -3.33526e+01 -1.78699e+01  3.82399e+01
3
# CELL(abcABC): 1322.94304  1322.94304  1322.94304    90.00000    90.00000    90.00000  Step:        4700  Bead:       3 positions{angstrom}  cell{angstrom}
       E -8.51519e+00  2.80998e+01 -2.96460e+01
       E -6.29228e+01  3.39437e+01  2.20894e+00
       E -5.48760e+00  2.97182e+01  1.63933e+01
3
# CELL(abcABC): 1322.94304  1322.94304  1322.94304    90.00000    90.00000    90.00000  Step:        4800  Bead:       3 positions{angstrom}  cell{angstrom}
       E  1.66746e+01  2.33007e+01 -3.37799e+01
       E -6.56298e+01 -1.97453e+01 -3.85322e+01
       E  2.79974e+01 -4.87438e-01 -4.51293e+01
3
# CELL(abcABC): 1322.94304  1322.94304  1322.94304    90.00000    90.00000    90.00000  Step:        4900  Bead:       3 positions{angstrom}  cell{angstrom}
       E  6.64211e+01  2.89600e+01 -1.48648e+01
       E -1.06746e+02 -5.13155e+01 -2.68935e+01
       E -3.21682e+00  1.71757e+01 -7.18096e+01
3
# CELL(abcABC): 1322.94304  1322.94304  1322.94304    90.00000    90.00000    90.00000  Step:        5000  Bead:       3 positions{angstrom}  cell{angstrom}
       E  4.84538e+01  2.89903e+01 -8.81695e-01
       E -6.15403e+01 -7.15855e+01 -1.88974e+01
       E -8.76799e+00  2.94487e+00 -6.89181e+01
3
# CELL(abcABC): 1322.94304  1322.94304  1322.94304    90.00000    90.00000    90.00000  Step:        5100  Bead:       3 positions{angstrom}  cell{angstrom}
       E  3.91369e+01  3.74956e+01  1.22977e+01
       E -9.08360e+01 -5.85856e+01 -1.64082e-01
       E  4.07146e+01 -4.32451e+00 -1.97484e+01
3
# CELL(abcABC): 1322.94304  1322.94304  1322.94304    90.00000    90.00000    90.00000  Step:        5200  Bead:       3 positions{angstrom}  cell{angstrom}
       E  4.12106e+01  6.35721e+01 -1.67695e+00
       E -2.73755e+01 -2.41231e+01 -3.84149e+00
       E  1.59801e+01  2.75317e+01 -2.38725e+01
3
# CELL(abcABC): 1322.94304  1322.94304  1322.94304    90.00000    90.00000    90.00000  Step:        5300  Bead:       3 positions{angstrom}  cell{angstrom}
       E  1.51077e+01  1.34024e+01  1.52503e+01
       E -5.35677e+01  4.81889e+01 -2.80422e+01
       E  6.79989e+00  3.01280e+01 -2.56526e+01
3
# CELL(abcABC): 1322.94304  1322.94304  1322.94304    90.00000    90.00000    90.00000  Step:        5400  Bead:       3 positions{angstrom}  cell{angstrom}
       E -3.88807e+00  2.22363e+01  4.52783e+01
       E -6.03104e+01  1.61917e+01 -2.85792e+01
       E -9.36289e+00  2.90554e+01  3.90343e+01
3
# CELL(abcABC): 1322.94304  1322.94304  1322.94304    90.00000    90.00000    90.00000  Step:        5500  Bead:       3 positions{angstrom}  cell{angstrom}
       E -2.46382e+01  4.78582e+01  5.56997e+01
       E -2.71725e+01  1.50092e+01 -1.00831e+01
       E -5.89168e+00  1.36641e+01  2.20955e+01
3
# CELL(abcABC): 1322.94304  1322.94304  1322.94304    90.00000    90.00000    90.00000  Step:        5600  Bead:       3 positions{angstrom}  cell{angstrom}
       E -5.13670e+00  4.79191e+01  2.51980e+01
       E -2.05023e+01  1.16904e+01 -1.61852e+00
       E  2.89140e+00  1.47623e+01  2.21789e+01
3
# CELL(abcABC): 1322.94304  1322.94304  1322.94304    90.00000    90.00000    90.00000  Step:        5700  Bead:       3 positions{angstrom}  cell{angstrom}
       E -2.84956e+01  5.20469e-01  1.38256e+01
       E -1.30752e+01  2.71411e+01 -1.74805e+01
       E -3.78592e+01  2.84223e+01  1.14258e+01
3
# CELL(abcABC): 1322.94304  1322.94304  1322.94304    90.00000    90.00000    90.00000  Step:        5800  Bead:       3 positions{angstrom}  cell{angstrom}
       E -4.40624e+01  2.37474e+01  1.16135e+01
       E -2.98920e+01  4.37866e+01  1.72431e+01
       E -1.11694e+01  1.32345e+01  1.26308e+01
3
# CELL(abcABC): 1322.94304  1322.94304  1322.94304    90.00000    90.00000    90.00000  Step:        5900  Bead:       3 positions{angstrom}  cell{angstrom}
       E -2.64024e+01  2.15533e+00 -5.00677e+00
       E -5.09238e+01  2.10578e+01 -3.08961e+01
       E -4.50359e+00 -8.46119e-01 -2.29361e+01
3
# CELL(abcABC): 1322.94304  1322.94304  1322.94304    90.00000    90.00000    90.00000  Step:        6000  Bead:       3 positions{angstrom}  cell{angstrom}
       E -1.07911e+01 -1.37031e+01 -1.88030e+01
       E -2.25580e+01  2.29244e+01 -2.70022e+01
       E  2.90197e+01 -3.46659e+01 -1.99748e+01
3
# CELL(abcABC): 1322.94304  1322.94304  1322.94304    90.00000    90.00000    90.00000  Step:        6100  Bead:       3 positions{angstrom}  cell{angstrom}
       E  4.04089e+01 -1.66931e+01 -7.27827e+01
       E  4.14086e+01 -2.81641e+01  7.24201e+00
       E  1.97181e+00 -3.03598e+01 -1.00432e+01
3
# CELL(abcABC): 1322.94304  1322.94304  1322.94304    90.00000    90.00000    90.00000  Step:        6200  Bead:       3 positions{angstrom}  cell{angstrom}
       E  3.77388e+01 -2.75391e+01 -1.07400e+02
       E  6.08765e+01 -3.62348e+01 -2.94714e+00
       E  2.85815e+01 -1.00070e+01 -1.80521e+01
3
# CELL(abcABC): 1322.94304  1322.94304  1322.94304    90.00000    90.00000    90.00000  Step:        6300  Bead:       3 positions{angstrom}  cell{angstrom}
       E  1.83217e+01 -3.13696e+01 -9.16885e+01
       E  4.37352e+01 -5.06774e+01 -1.06944e+01
       E  1.36536e+01 -3.00630e+01  5.35838e+00
3
# CELL(abcABC): 1322.94304  1322.94304  1322.94304    90.00000    90.00000    90.00000  Step:        6400  Bead:       3 positions{angstrom}  cell{angstrom}
       E  2.38325e+01 -6.23794e+01 -1.09599e+02
       E  7.23604e+01 -5.19309e+01 -2.83705e+01
       E  3.87601e+01 -4.26571e+01  1.90647e+01
3
# CELL(abcABC): 1322.94304  1322.94304  1322.94304    90.00000    90.00000    90.00000  Step:        6500  Bead:       3 positions{angstrom}  cell{angstrom}
       E -2.90532e+01 -1.05341e+02 -1.11230e+02
       E  3.24134e+01 -1.96056e+01 -4.05194e+01
       E  1.28865e+00 -4.36856e+01  9.58831e+00
3
# CELL(abcABC): 1322.94304  1322.94304  1322.94304    90.00000    90.00000    90.00000  Step:        6600  Bead:       3 positions{angstrom}  cell{angstrom}
       E  2.34274e+00 -9.33580e+01 -1.31732e+02
       E -8.52748e-01  5.99232e-01 -2.98195e+01
       E  8.63030e+00 -3.55301e+01  5.56706e+01
3
# CELL(abcABC): 1322.94304  1322.94304  1322.94304    90.00000    90.00000    90.00000  Step:        6700  Bead:       3 positions{angstrom}  cell{angstrom}
       E  2.31895e+01 -8.66636e+01 -1.32687e+02
       E  3.39317e+01 -1.91225e+01 -2.39539e+01
       E -6.84062e+00 -1.53986e+01  1.28410e+01
3
# CELL(abcABC): 1322.94304  1322.94304  1322.94304    90.00000    90.00000    90.00000  Step:        6800  Bead:       3 positions{angstrom}  cell{angstrom}
       E  2.72524e+00 -6.56964e+01 -5.68231e+01
       E  3.32133e+01 -5.39363e+01 -4.29108e+01
       E -2.64294e+01  2.70374e+01  5.45913e+01
3
# CELL(abcABC): 1322.94304  1322.94304  1322.94304    90.00000    90.00000    90.00000  Step:        6900  Bead:       3 positions{angstrom}  cell{angstrom}
       E -3.02904e+01 -6.28790e+01 -7.20780e+01
       E  8.70972e+00  4.80666e+00 -1.84383e+01
       E -1.70238e+01  3.04200e+00  3.42566e+01
3
# CELL(abcABC): 1322.94304  1322.94304  1322.94304    90.00000    90.00000    90.00000  Step:        7000  Bead:       3 positions{angstrom}  cell{angstrom}
       E -5.09007e+01 -4.19777e+01 -6.14922e+01
       E -7.70319e-01  7.93049e+00 -4.14289e+01
       E  2.97776e+01  3.00379e+01  4.06584e+01
3
# CELL(abcABC): 1322.94304  1322.94304  1322.94304    90.00000    90.00000    90.00000  Step:        7100  Bead:       3 positions{angstrom}  cell{angstrom}
       E -8.33492e+00 -7.99208e+00 -3.69636e+01
       E -4.43708e+01  3.81897e+01  1.03492e+01
       E  4.16043e+00  1.59367e+01  3.77059e+01
3
# CELL(abcABC): 1322.94304  1322.94304  1322.94304    90.00000    90.00000    90.00000  Step:        7200  Bead:       3 positions{angstrom}  cell{angstrom}
       E -1.76339e+01 -2.29395e+01 -3.86131e+01
       E -3.98522e+01  4.77509e+01  4.73727e+01
       E  2.90045e+01  5.50560e+01  1.01975e+01
3
# CELL(abcABC): 1322.94304  1322.94304  1322.94304    90.00000    90.00000    90.00000  Step:        7300  Bead:       3 positions{angstrom}  cell{angstrom}
       E -1.95725e+00 -3.13333e+01 -6.71090e+01
       E -1.32929e+01  5.56500e+01  4.83204e+01
       E  5.25362e+01  2.04439e+01 -1.16414e+01
3
# CELL(abcABC): 1322.94304  1322.94304  1322.94304    90.00000    90.00000    90.00000  Step:        7400  Bead:       3 positions{angstrom}  cell{angstrom}
       E  1.82239e+01 -2.94634e+01 -3.25188e+01
       E -3.56479e+01  2.96463e+01  4.57088e+01
       E  7.35622e+01  3.42733e+01 -3.29234e+01
3
# CELL(abcABC): 1322.94304  1322.94304  1322.94304    90.00000    90.00000    90.00000  Step:        7500  Bead:       3 positions{angstrom}  cell{angstrom}
       E -3.35324e+01 -5.54581e+01 -3.15634e+01
       E -3.84711e+01  4.90910e+00  9.89661e+00
       E  8.28729e+01  4.47018e+01 -4.36223e+01
3
# CELL(abcABC): 1322.94304  1322.94304  1322.94304    90.00000    90.00000    90.00000  Step:        7600  Bead:       3 positions{angstrom}  cell{angstrom}
       E -4.25060e+01 -6.09091e+01 -2.35358e+01
       E -1.50227e+01 -3.06855e+01 -4.13101e+00
       E  8.00520e+01  6.50912e+01 -1.59536e+01
3
# CELL(abcABC): 1322.94304  1322.94304  1322.94304    90.00000    90.00000    90.00000  Step:        7700  Bead:       3 positions{angstrom}  cell{angstrom}
       E -1.03184e+01 -5.54067e+01 -3.23513e+01
       E -9.54363e+00 -5.18139e+01 -7.99294e+00
       E  7.20146e+01  3.04754e+00 -2.73622e+01
3
# CELL(abcABC): 1322.94304  1322.94304  1322.94304    90.00000    90.00000    90.00000  Step:        7800  Bead:       3 positions{angstrom}  cell{angstrom}
       E  2.55240e+01 -1.79869e+01 -4.70559e+01
       E  9.37236e+00 -5.21772e+01 -1.34540e+01
       E  3.66330e+01  3.78783e+01 -5.69010e+01
3
# CELL(abcABC): 1322.94304  1322.94304  1322.94304    90.00000    90.00000    90.00000  Step:        7900  Bead:       3 positions{angstrom}  cell{angstrom}
       E  3.52000e+01  1.15367e+01 -4.35559e+01
       E  4.29915e+01 -2.61056e+01 -2.40024e+01
       E  7.38304e+01  2.47785e+01 -4.90741e+01
3
# CELL(abcABC): 1322.94304  1322.94304  1322.94304    90.00000    90.00000    90.00000  Step:        8000  Bead:       3 positions{angstrom}  cell{angstrom}
       E  1.20968e+01  3.32313e+01 -1.45083e+01
       E  3.99488e+01 -4.15431e+01 -5.18354e+01
       E  4.27151e+01  3.44310e+01 -2.20453e+01
3
# CELL(abcABC): 1322.94304  1322.94304  1322.94304    90.00000    90.00000    90.00000  Step:        8100  Bead:       3 positions{angstrom}  cell{angstrom}
       E  2.09699e+01  2.54532e+01  6.27204e+00
       E -1.08712e+00 -2.03236e+01 -3.27984e+01
       E -5.51071e+00 -3.27998e+01 -9.56333e+00
3
# CELL(abcABC): 1322.94304  1322.94304  1322.94304    90.00000    90.00000    90.00000  Step:        8200  Bead:       3 positions{angstrom}  cell{angstrom}
       E  2.36155e+01  2.89014e+01 -4.87515e+01
       E  1.06240e+01  3.49117e+01 -1.47670e+01
       E  3.88886e+01 -2.78569e+01  1.61604e+01
3
# CELL(abcABC): 1322.94304  1322.94304  1322.94304    90.00000    90.00000    90.00000  Step:        8300  Bead:       3 positions{angstrom}  cell{angstrom}
       E  2.09613e+01 -7.31444e+00 -3.26013e+01
       E  3.48202e+01  1.32954e+00  2.58952e+01
       E  2.48500e+01 -3.01817e+01  1.01243e+01
3
# CELL(abcABC): 1322.94304  1322.94304  1322.94304    90.00000    90.00000    90.00000  Step:        8400  Bead:       3 positions{angstrom}  cell{angstrom}
       E  4.17447e+01  3.06774e+00  1.56187e+01
       E  1.30590e+01  1.79100e+01  3.92537e+01
       E  4.45103e+00  1.18489e+01  3.34794e+01
3
# CELL(abcABC): 1322.94304  1322.94304  1322.94304    90.00000    90.00000    90.00000  Step:        8500  Bead:       3 positions{angstrom}  cell{angstrom}
       E -1.27075e+01  1.01850e+01 -9.32056e-01
       E  6.57199e+01  3.16686e+01  1.88817e+01
       E  5.04429e+01 -1.45155e+01  1.20678e+01
3
# CELL(abcABC): 1322.94304  1322.94304  1322.94304    90.00000    90.00000    90.00000  Step:        8600  Bead:       3 positions{angstrom}  cell{angstrom}
       E -3.96257e+01 -2.33059e+00 -1.44387e+01
       E  4.90691e+01  8.91394e+00 -9.80964e-01
       E  6.29856e+01 -1.19165e+01  5.54348e+01
3
# CELL(abcABC): 1322.94304  1322.94304  1322.94304    90.00000    90.00000    90.00000  Step:        8700  Bead:       3 positions{angstrom}  cell{angstrom}
       E -2.14762e+01  3.59873e+01 -2.63906e+01
       E  2.79706e+01 -1.66901e+01  1.90719e+00
       E  3.85689e+01 -4.78779e+01  2.13329e+01
3
# CELL(abcABC): 1322.94304  1322.94304  1322.94304    90.00000    90.00000    90.00000  Step:        8800  Bead:       3 positions{angstrom}  cell{angstrom}
       E -2.70274e+00  5.14104e+01  1.43212e+01
       E -1.36260e+00 -6.00321e+00 -5.26256e+00
       E  6.49013e+01 -5.81942e+01  5.56032e+01
3
# CELL(abcABC): 1322.94304  1322.94304  1322.94304    90.00000    90.00000    90.00000  Step:        8900  Bead:       3 positions{angstrom}  cell{angstrom}
       E -1.00091e+01  3.05821e+01  1.70147e+00
       E -3.06548e+01 -1.79813e+01  2.65012e+01
       E  3.32386e+01 -6.26669e+01  6.92724e+00
3
# CELL(abcABC): 1322.94304  1322.94304  1322.94304    90.00000    90.00000    90.00000  Step:        9000  Bead:       3 positions{angstrom}  cell{angstrom}
       E -1.02407e+01  3.11962e+01  5.91420e+00
       E -3.84315e+01 -3.54152e+01  2.35413e+01
       E  5.74485e+00 -8.21394e+01 -5.17694e+00
3
# CELL(abcABC): 1322.94304  1322.94304  1322.94304    90.00000    90.00000    90.00000  Step:        9100  Bead:       3 positions{angstrom}  cell{angstrom}
       E  9.93677e+00  4.42071e+01  2.12224e+01
       E -6.00923e+01  1.64754e+00  3.29752e+01
       E  7.39545e-01 -6.76698e+01 -2.21286e+01
3
# CELL(abcABC): 1322.94304  1322.94304  1322.94304    90.00000    90.00000    90.00000  Step:        9200  Bead:       3 positions{angstrom}  cell{angstrom}
       E -1.70449e+01  2.63584e+01  3.34723e+00
       E  9.14575e+00 -2.89513e+00  4.08365e+01
       E  1.49800e+01 -2.08016e+01 -7.94464e+00
3
# CELL(abcABC): 1322.94304  1322.94304  1322.94304    90.00000    90.00000    90.00000  Step:        9300  Bead:       3 positions{angstrom}  cell{angstrom}
       E  1.42262e+01  4.70247e+01 -5.32779e+01
       E  4.61461e+00 -4.26406e+01  1.83315e+01
       E  4.19874e+01 -3.02112e+01  6.88000e+00
3
# CELL(abcABC): 1322.94304  1322.94304  1322.94304    90.00000    90.00000    90.00000  Step:        9400  Bead:       3 positions{angstrom}  cell{angstrom}
       E  2.38297e+01  5.34000e+01 -2.48774e+01
       E  4.69662e+01 -2.98404e+01  6.55216e+00
       E  3.05754e+01 -1.43536e+01  9.90484e+00
3
# CELL(abcABC): 1322.94304  1322.94304  1322.94304    90.00000    90.00000    90.00000  Step:        9500  Bead:       3 positions{angstrom}  cell{angstrom}
       E  1.87691e+01  3.24117e+00 -2.63681e+01
       E  5.16359e+01  1.51366e+01  1.00237e+01
       E -1.17633e+01 -1.00931e+01  2.24129e+01
3
# CELL(abcABC): 1322.94304  1322.94304  1322.94304    90.00000    90.00000    90.00000  Step:        9600  Bead:       3 positions{angstrom}  cell{angstrom}
       E -9.93238e+00  3.68725e-01 -4.03267e+01
       E  3.20948e+01 -3.76212e+01  3.41332e+01
       E -1.69364e+01 -3.47492e+01 -2.35774e+00
3
# CELL(abcABC): 1322.94304  1322.94304  1322.94304    90.00000    90.00000    90.00000  Step:        9700  Bead:       3 positions{angstrom}  cell{angstrom}
       E -6.51667e+01 -2.39561e-01 -7.68488e+01
       E  2.06246e+01 -6.54531e+01  1.34232e+01
       E -2.80529e+01 -2.78482e+01 -8.67283e+00
3
# CELL(abcABC): 1322.94304  1322.94304  1322.94304    90.00000    90.00000    90.00000  Step:        9800  Bead:       3 positions{angstrom}  cell{angstrom}
       E -4.33827e+01 -4.63054e+01 -4.08807e+01
       E  3.95463e+01 -9.07071e+01 -1.08492e+01
       E  5.89312e+00 -1.94286e+01  3.35090e+01
3